! Touchstone file from project TaperedLine_and_RadialStub
! Exported from HFSS 2018.0.0
! Variables:
!  $h = 62mil
!  $t = 0.7mil
!  h = 62mil
!  lam = 65.346mm
!  reflectStandard = 20mm
!  t = 0.7mil
!  w = 2.99067mm
!  w1 = 2.57627mm
!  w2 = 1.5658mm
!  w3 = 0.849831mm
!  w4 = 0.6694mm
!Data is not renormalized
# GHZ S MA
! Modal data exported
! Port[1] = 1:1
! Port[2] = 2:1
0                0.686517557999338 0                0.718629399732265 0                0.718629399732464 0                0.682299387956313 180              
! Gamma         !               0.00482774269226711 0                0.00557301449240847 0                
! Port Impedance50               0                399.538826046754 0                

0.01             0.312466756175292 -3.66815877906934 0.949087607461911 -1.57769836318987 0.949087607461908 -1.57769836318955 0.312754579896186 176.69390975225  
! Gamma         !               0.0100899961512815 0.367418085808535 0.0164260266058188 0.362744255591059 
! Port Impedance50               0                101.684280860478 -1.26108060636174 

0.02             0.309790246117215 -4.57773083173442 0.949454310628042 -3.44842952351505 0.949454310628043 -3.4484295235151 0.310562220151389 176.076694545493 
! Gamma         !               0.0138289394241353 0.733006817365076 0.0217096927412072 0.720674847958663 
! Port Impedance50               0                101.646961982652 -0.21381303832426 

0.03             0.308621636721357 -6.08500060632696 0.949410157919163 -5.25404635772999 0.949410157919162 -5.25404635772999 0.309758579558096 174.863667459444 
! Gamma         !               0.017294157186294 1.09884624692896 0.0258386235974526 1.07868955509828 
! Port Impedance50               0                101.637059995548 0.127904482447444 

0.04             0.307881916932383 -7.77037466842615 0.949246631962349 -7.03962812038772 0.949246631962349 -7.03962812038758 0.309356075516934 173.475447753672 
! Gamma         !               0.0206056021641334 1.46477433396118 0.0294920657072519 1.43690603064561 
! Port Impedance50               0                101.633081736825 0.302046129410791 

0.05             0.30727843787636 -9.54772615281738 0.949034245538408 -8.81621421589236 0.949034245538408 -8.81621421589231 0.309067768800484 171.997812206884 
! Gamma         !               0.024009218721973 1.83073611260906 0.033148237573986 1.79524644292424 
! Port Impedance50               0                101.629447995471 0.400987941762375 

0.06             0.306714431664267 -11.3752676892722 0.948799874027855 -10.5883315619333 0.948799874027855 -10.5883315619333 0.308802810482656 170.471692156689 
! Gamma         !               0.0275747433546948 2.19670395129963 0.0369508597095827 2.15364132455722 
! Port Impedance50               0                101.625674773975 0.461908781932957 

0.07             0.306152638104677 -13.2306206431458 0.948559189131994 -12.3578778604657 0.948559189131995 -12.3578778604657 0.308531158599948 168.918618987427 
! Gamma         !               0.031249947113256 2.56266427275116 0.040872804530986 2.51204792499092 
! Port Impedance50               0                101.622017709655 0.503270420390705 

0.08             0.305577639653661 -15.1013442710333 0.94832331297048 -14.1254588889155 0.94832331297048 -14.1254588889155 0.308243862620766 167.350239392999 
! Gamma         !               0.0349088169670009 2.92861084923159 0.0447971454580248 2.8704406579303  
! Port Impedance50               0                101.618670682703 0.534703942521431 

0.09             0.304983616035708 -16.9802077011447 0.948100458367245 -15.8910065565299 0.948100458367246 -15.89100655653  0.307940162366556 165.773017347086 
! Gamma         !               0.0383754629599992 3.2945415871888  0.0485511199002155 3.22880399771186 
! Port Impedance50               0                101.615699453131 0.561303498297465 

0.1              0.304369557683429 -18.8627304032859 0.947896477933801 -17.6541019259576 0.947896477933802 -17.6541019259576 0.307622892032509 164.190668947574 
! Gamma         !               0.0414353351407938 3.66045678921701 0.0519208017301602 3.58712836046993 
! Port Impedance50               0                101.613092841614 0.585776476972631 

0.11             0.303678091587193 -20.8192181544805 0.947874337659008 -19.4142259163674 0.94787433765901 -19.4142259163675 0.307184459019023 162.560238700077 
! Gamma         !               0.053172788504137 4.02950942025332 0.0616759168735069 3.9506746358185  
! Port Impedance50               0                101.586786006245 0.587343784145581 

0.12             0.302981000827702 -22.7738235483362 0.947839983867405 -21.1744104092065 0.947839983867406 -21.1744104092066 0.306736721078186 160.93004924704  
! Gamma         !               0.0626828196346741 4.39723125249964 0.0703791660928462 4.3123829421626  
! Port Impedance50               0                101.565812171498 0.588849180947731 

0.13             0.302271434189369 -24.7260076252247 0.947795472912118 -22.9346965501494 0.94779547291212 -22.9346965501495 0.30627377287304 159.300398716016 
! Gamma         !               0.070543610553786 4.76409782259554 0.0781558270325822 4.67276072513337 
! Port Impedance50               0                101.549116359626 0.590637387927842 

0.14             0.301544170957974 -26.6754926822397 0.947742515994508 -24.6951107999949 0.947742515994508 -24.6951107999949 0.305790795621011 157.67142407002  
! Gamma         !               0.0771655777126803 5.13040562885653 0.0851289191810925 5.03216990642801 
! Port Impedance50               0                101.535853962479 0.592863531504945 

0.15             0.300795308251945 -28.6221560828332 0.947682544570749 -26.45567195092  0.94768254457075 -26.45567195092  0.305283870547607 156.043169114816 
! Gamma         !               0.0828455036104951 5.49634404774274 0.0914126471023162 5.39087118035707 
! Port Impedance50               0                101.525352629052 0.595572853757393 

0.16             0.300021981802064 -30.565966004826 0.947616767246361 -28.2163952110806 0.947616767246362 -28.2163952110807 0.304749812030784 154.415625211171 
! Gamma         !               0.0878016183991678 5.86203657775722 0.0971094345383436 5.74905382926722 
! Port Impedance50               0                101.517077064647 0.598749329391017 

0.17             0.299222136341778 -32.5069429442151 0.947546215611046 -29.9772945100376 0.947546215611047 -29.9772945100377 0.304186030595478 152.788755269959 
! Gamma         !               0.092196852648804 6.2275652104682  0.102309150235746 6.10685622772082 
! Port Impedance50               0                101.51059962264  0.602344974905246 

0.18             0.298394343886927 -34.445136879453 0.947471779899734 -31.7383837350244 0.947471779899735 -31.7383837350245 0.30359042449115 151.162507619822 
! Gamma         !               0.0961545538377879 6.59298521923091 0.107089550657239 6.46438014722577 
! Port Impedance50               0                101.505576860829 0.606297294481956 

0.19             0.297537662442627 -36.3806139068016 0.94739423634541 -33.4996773299753 0.947394236345411 -33.4996773299754 0.302961295015251 149.536823785492 
! Gamma         !               0.0997692982273641 6.95833434917687 0.111517320642578 6.82170084235601 
! Port Impedance50               0                101.501731279794 0.610539474972659 

0.2              0.296651526869326 -38.3134485797237 0.947314268111886 -35.2611905190988 0.947314268111887 -35.2611905190989 0.302297280341592 147.91164263454  
! Gamma         !               0.103114450410501 7.3236386513419  0.115649344368058 7.17887422430029 
! Port Impedance50               0                101.498837248723 0.61500616409597 

0.21             0.295735664595803 -40.2437196644981 0.947232481402777 -37.0229393137746 0.947232481402777 -37.0229393137747 0.301597303315789 146.286902385394 
! Gamma         !               0.106247529038931 7.68891625830865 0.119534001813891 7.53594200214008 
! Port Impedance50               0                101.496710195698 0.619636569120876 

0.22             0.294790030261215 -42.1715079223086 0.947149417995393 -38.7849403992672 0.947149417995393 -38.7849403992673 0.300860529636451 144.662541382966 
! Gamma         !               0.109214069142476 8.05417987043284 0.123212385809241 7.89293539388142 
! Port Impedance50               0                101.495198296507 0.624375941511399 

0.23             0.293814754697469 -44.09689507298  0.947065565137712 -40.5472109599406 0.947065565137713 -40.5472109599407 0.300086333729637 143.038498191474 
! Gamma         !               0.112050438865239 8.41943841884095 0.126719393254379 8.2498778232939  
! Port Impedance50               0                101.494176058995 0.629176101980469 

0.24             0.292810104771684 -46.0199634268976 0.946981363497429 -42.3097684785613 0.94698136349743 -42.3097684785614 0.299274270349866 141.414711336404 
! Gamma         !               0.11478591891366 8.78469819361696 0.130084676859652 8.60678689250917 
! Port Impedance50               0                101.493539340979 0.633995408370231 

0.25             0.291776451478561 -47.9407958738026 0.946897213662324 -44.0726305310545 0.946897213662325 -44.0726305310546 0.29842405049708 139.791118894126 
! Gamma         !               0.117444255333517 9.1499636189867  0.133333460967778 8.96367583393968 
! Port Impedance50               0                101.493201452952 0.638798413644528 

0.26             0.290714244334851 -49.8594760409086 0.946813481551046 -45.8358145892628 0.946813481551048 -45.8358145892629 0.2975355206499  138.167658045672 
! Gamma         !               0.120044831465968 9.51523779209358 0.136487233218922 9.32055458540609 
! Port Impedance50               0                101.493090084108 0.643555365371148 

0.27             0.289623990624193 -51.7760885087351 0.946730502991663 -47.5993378387625 0.946730502991663 -47.5993378387625 0.296608644611605 136.5442646606   
! Gamma         !               0.122603561379955 9.88052286133133 0.139564326932953 9.67743059085348 
! Port Impedance50               0                101.493144856207 0.648241638531315 

0.28             0.288506238409242 -53.6907190197458 0.946648587652339 -49.3632170153655 0.94664858765234 -49.3632170153656 0.295643487474874 134.920872945742 
! Gamma         !               0.125133577399664 10.245820294457  0.142580409474597 10.0343093999713 
! Port Impedance50               0                101.493315359129 0.652837156414129 

0.29             0.287361562500939 -55.6034546435146 0.946568022456635 -51.1274682618055 0.946568022456635 -51.1274682618056 0.294640201357261 133.297415174559 
! Gamma         !               0.127645763866148 10.611131070138  0.145548890902206 10.3911951195515 
! Port Impedance50               0                101.493559558638 0.657325831229017 

0.3              0.286190552776889 -57.5143838796747 0.946489074579014 -52.8921070048056 0.946489074579015 -52.8921070048056 0.293599012659663 131.673821501354 
! Gamma         !               0.130149174971581 10.9764558157685 0.148481265652189 10.7480907548973 
! Port Impedance50               0                101.493842494028 0.661695041666664 

0.31             0.284993804390592 -59.4235966905043 0.946411994090243 -54.6571478519475 0.946411994090243 -54.6571478519476 0.292520210667799 130.050019857731 
! Gamma         !               0.132651364405729 11.3417949072278 0.151387398299535 11.1049984692338 
! Port Impedance50               0                101.494135203482 0.665935155717042 

0.32             0.283771909524566 -61.3311844613238 0.946337016303881 -56.4226045073333 0.946337016303881 -56.4226045073334 0.29140413736191 128.425935924947 
! Gamma         !               0.135158647346271 11.707148541453  0.154275762776682 11.4619197816362 
! Port Impedance50               0                101.494413829966 0.670039101590782 

0.33             0.282525450423389 -63.2372398905476 0.946264363862047 -58.1884897048061 0.946264363862048 -58.1884897048061 0.290251178329489 126.80149317378  
! Gamma         !               0.137676310127719 12.0725167894437 0.157153642928496 11.8188557186174 
! Port Impedance50               0                101.494658871569 0.67400198631768 

0.34             0.281254993504675 -65.1418568132505 0.946194248589303 -59.9548151574239 0.946194248589303 -59.954815157424 0.289061754694877 125.176612962743 
! Gamma         !               0.140208779140883 12.4378996350853 0.160027300966702 12.1758069306191 
! Port Impedance50               0                101.494854548561 0.677820759711509 

0.35             0.279961084392579 -67.0451299631301 0.946126873136733 -61.7215915218831 0.946126873136732 -61.7215915218832 0.287836315991636 123.551214685354 
! Gamma         !               0.142759757736055 12.803297003629  0.162902119265225 12.5327737817967 
! Port Impedance50               0                101.49498826565  0.68149392038293 

0.36             0.278644243753382 -68.9471546781552 0.946062432433382 -63.4888283766438 0.946062432433382 -63.4888283766439 0.286575333911114 121.925215957476 
! Gamma         !               0.145332337844336 13.1687087825894 0.165782719994776 12.8897564193945 
! Port Impedance50               0                101.49505015263  0.685021260025984 

0.37             0.277304963839188 -70.8480265552574 0.946001114958441 -65.2565342125948 0.94600111495844 -65.2565342125949 0.285279296865279 120.298532836245 
! Gamma         !               0.147929091493527 13.5341348370565 0.168673066309943 13.2467548274587 
! Port Impedance50               0                101.495032670157 0.688403642088576 

0.38             0.275943705665695 -72.7478410592808 0.945943103844723 -67.0247164351859 0.945943103844724 -67.0247164351859 0.283948705304849 118.671080062774 
! Gamma         !               0.150552146237199 13.899575020876  0.171576548152695 13.6037688684871 
! Port Impedance50               0                101.494930270093 0.691642811028593 

0.39             0.274560896765179 -74.6466930911754 0.945888577821764 -68.7933813770503 0.945888577821765 -68.7933813770504 0.282584067735739 117.042771321507 
! Gamma         !               0.153203247637318 14.2650291847655 0.174496055201391 13.9607983157531 
! Port Impedance50               0                101.494739101952 0.694741228567631 

0.4              0.273156929467272 -76.5446765201438 0.94583771200496 -70.562534320231 0.94583771200496 -70.5625343202311 0.281185897378338 115.413519509783 
! Gamma         !               0.155883811270051 14.6304971821508 0.177434039054812 14.3178428783992 
! Port Impedance50               0                101.49445675854  0.697701933627853 

0.41             0.271732159668848 -78.441883684186 0.945790678535754 -72.3321795271985 0.945790678535754 -72.3321795271985 0.279754709415455 113.783237011858 
! Gamma         !               0.158594966208524 14.9959788733053 0.180392566379975 14.6749022209062 
! Port Impedance50               0                101.494082055172 0.700528422938336 

0.42             0.270286906060858 -80.338404863222 0.945747647076543 -74.10232027992  0.945747647076544 -74.10232027992  0.278291018776092 112.151835972281 
! Gamma         !               0.161337591537054 15.3614741282246 0.1833733644564  15.0319759781793 
! Port Impedance50               0                101.493614837776 0.703224549603097 

0.43             0.268821449784968 -82.234327728763 0.945708785162979 -75.8729589262923 0.945708785162979 -75.8729589262923 0.276795338403587 110.519228564127 
! Gamma         !               0.164112347140529 15.7269828285597 0.186377860306419 15.3890637672075 
! Port Impedance50               0                101.493055816004 0.705794437219776 

0.44             0.267336034496457 -84.129736773911 0.945674258415391 -77.6440969332928 0.945674258415392 -77.6440969332928 0.275268177958248 108.885327248149 
! Gamma         !               0.166919699769052 16.0925048688496 0.18940721440136 15.7461651960421 
! Port Impedance50               0                101.492406418057 0.708242407417826 

0.45             0.265830866812626 -86.0247127273257 0.9456442306104  -79.4157349462363 0.945644230610399 -79.4157349462364 0.273710042906238 107.250045019494 
! Gamma         !               0.169759945186179 16.4580401572372 0.192462349769048 16.1032798706729 
! Port Impedance50               0                101.491668664435 0.710572918943489 

0.46             0.264306117127835 -87.9193319546923 0.94561886361311 -81.1878728535428 0.94561886361311 -81.1878728535428 0.272121433948358 105.613295639069 
! Gamma         !               0.17263322705715 16.8235886158028 0.195543977192594 16.4604074002555 
! Port Impedance50               0                101.490845058237 0.712790516654122 

0.47             0.262761920777652 -89.8136658511596 0.945598317169913 -82.9605098564338 0.945598317169912 -82.9605098564338 0.270502846744313 103.974993847188 
! Gamma         !               0.175539553112629 17.18915018062   0.198652617078548 16.8175474010434 
! Port Impedance50               0                101.489938489942 0.714899788996083 

0.48             0.261198379535372 -91.7077802281746 0.945582748561506 -84.7336445429768 0.945582748561506 -84.7336445429768 0.268854771890157 102.335055557532 
! Gamma         !               0.178478809026699 17.5547248016109 0.201788618479923 17.1746994993036 
! Port Impedance50               0                101.488952154914 0.716905332729273 

0.49             0.25961556342464 -93.6017346981515 0.94557231211563 -86.5072749658926 0.94557231211563 -86.5072749658926 0.267177695108803 100.693398029918 
! Gamma         !               0.181450770370148 17.920312442259  0.204952175682869 17.5318633334352 
! Port Impedance50               0                101.487889482062 0.718811723828566 

0.5              0.258013512831905 -95.495582060422 0.94556715857889 -88.2813987235291 0.94556715857889 -88.2813987235291 0.265472097615752 99.0499400207745 
! Gamma         !               0.184455112937301 18.2859130792244 0.208143342701954 17.8890385554633 
! Port Impedance50               0                101.486754072324 0.720623493639606 

0.51             0.256392240902284 -97.3893676919666 0.945567434347112 -90.0560130433945 0.945567434347113 -90.0560130433945 0.263738456624563 97.4046019106036 
! Gamma         !               0.187491421693752 18.6515267018945 0.211362045975905 18.2462248320437 
! Port Impedance50               0                101.485549645773 0.722345109495394 

0.52             0.25475173620189 -99.2831289464867 0.945573280553839 -91.8311148676199 0.945573280553839 -91.8311148676199 0.261977245958981 95.7573058081098 
! Gamma         !               0.190559198550908 19.0171533118939 0.214608095511323 18.6034218450885 
! Port Impedance50               0                101.484279996317 0.723980959112463 

0.53             0.253091965629014 -101.176894565448 0.945584832016863 -93.606700939709 0.945584832016863 -93.606700939709 0.260188936741103 94.107975631021  
! Gamma         !               0.193657869139356 19.3827929225732 0.217881194684744 18.9606292920948 
! Port Impedance50               0                101.482948953065 0.725535338183225 

0.54             0.251412877555689 -103.070684104812 0.945602216043084 -95.3827678919074 0.945602216043084 -95.3827678919074 0.258373998127449 92.4565371639817 
! Gamma         !               0.196786788725279 19.7484455584898 0.221180948882323 19.3178468862473 
! Port Impedance50               0                101.481560347553 0.727012440665601 

0.55             0.249714405180058 -104.964507381246 0.945625551092465 -97.1593123325085 0.945625551092464 -97.1593123325085 0.256532898067334 90.8029180942294 
! Gamma         !               0.199945247391183 20.1141112548903 0.224506873130237 19.6750743563459 
! Port Impedance50               0                101.480117986114 0.728416351344148 

0.56             0.247996470068877 -106.858363941691 0.94565494530246 -98.9363309323968 0.94565494530246 -98.9363309323968 0.254666104060457 89.1470480260821 
! Gamma         !               0.203132474583301 20.4797900572018 0.227858398846851 20.0323114466016 
! Port Impedance50               0                101.47862562675  0.729751040299776 

0.57             0.246258985868094 -108.752242560219 0.945690494874971 -100.71382051011 0.945690494874971 -100.71382051011 0.252774083893189 87.4888584755628 
! Gamma         !               0.206347643112289 20.8454820205377 0.231234879829085 20.3895579163348 
! Port Impedance50               0                101.477086959959 0.731020358979223 

0.58             0.244501862158123 -110.646120766183 0.945732282328621 -102.491778114696 0.945732282328621 -102.491778114696 0.250857306335568 85.8282828467723 
! Gamma         !               0.209589872680746 21.2111872092203 0.234635597569636 20.7468135396012 
! Port Impedance50               0                101.475505593006 0.732228037601782 

0.59             0.242725008428946 -112.539964407675 0.945780374619994 -104.270201105636 0.945780374619995 -104.270201105636 0.248916241783546 84.1652563918808 
! Gamma         !               0.212858233000175 21.5769056963233 0.238059765988346 21.1040781047677 
! Port Impedance50               0                101.473885037205 0.733377683680413 

0.6              0.24092833814873 -114.433727254336 0.945834821138344 -106.049087229084 0.945834821138345 -106.049087229084 0.246951362833538 82.4997161568581 
! Gamma         !               0.216151746550817 21.9426375632347 0.241506535649646 21.4613514140529 
! Port Impedance50               0                101.47222869782  0.734472781468287 

0.61             0.239111772898137 -116.327350643505 0.945895651579211 -107.828434689716 0.945895651579212 -107.828434689716 0.244963144778799 80.8316009152769 
! Gamma         !               0.21946939103013 22.3083828992416 0.244974997528284 21.8186332830472 
! Port Impedance50               0                101.470539866236 0.735516692170652 

0.62             0.237275246541139 -118.220763173664 0.945962873703349 -109.60824221745 0.94596287370335 -109.60824221745 0.242952066019567 79.1608510927309 
! Gamma         !               0.222810101529172 22.6741418011356 0.2484641863773  22.1759235402206 
! Port Impedance50               0                101.468821714105 0.736512654786561 

0.63             0.235418709401744 -120.113880448998 0.946036470988335 -111.388509128339 0.946036470988335 -111.388509128339 0.240918608381268 77.487408684578  
! Gamma         !               0.226172772470671 23.0399143728399 0.251973083745122 22.5332220264271 
! Port Impedance50               0                101.467077289185 0.737463787465872 

0.64             0.233542132414885 -122.006604878778 0.946116400181202 -113.169235378967 0.946116400181202 -113.169235378967 0.238863257337367 75.8112171698758 
! Gamma         !               0.229556259337938 23.405700725057  0.255500620682564 22.8905285944112 
! Port Impedance50               0                101.465309512639 0.738373089284783 

0.65             0.231645511218651 -123.898825535028 0.946202588761413 -114.950421613682 0.946202588761414 -114.950421613682 0.236786502135631 74.1322214244969 
! Gamma         !               0.232959380219798 23.7715009749353 0.259045680175312 23.247843108321  
! Port Impedance50               0                101.463521177586 0.739243442358229 

0.66             0.229728870154227 -125.790418071723 0.946294932324423 -116.732069204079 0.946294932324423 -116.732069204079 0.234688835828656 72.4503676365116 
! Gamma         !               0.23638091719339 24.1373152457558 0.262607099332982 23.6051654432313 
! Port Impedance50               0                101.461714948712 0.740077614220238 

0.67             0.227792266139357 -127.681244708451 0.946393291896931 -118.514180280148 0.946393291896931 -118.514180280148 0.232570755211459 70.765603226997  
! Gamma         !               0.239819617563781 24.5031436666359 0.266183671361951 23.9624954846791 
! Port Impedance50               0                101.459893362784 0.740878260414265 

0.68             0.225835792380888 -129.571154281098 0.946497491195805 -120.29675775258 0.946497491195805 -120.29675775258 0.230432760670783 69.0778767794761 
! Gamma         !               0.243274194976903 24.8689863722502 0.269774147345812 24.3198331282135 
! Port Impedance50               0                101.458058829918 0.741647927244661 

0.69             0.223859581892046 -131.45998236171 0.946607313843342 -122.079805325785 0.946607313843342 -122.079805325785 0.228275355952417 67.3871379812029 
! Gamma         !               0.246743330420196 25.2348435025683 0.273377237854416 24.6771782789601 
! Port Impedance50               0                101.456213635482 0.742389054648233 

0.7              0.221863810780585 -133.347551449243 0.946722500552224 -123.863327501202 0.946722500552225 -123.863327501202 0.22609904785436 65.6933375795071 
! Gamma         !               0.250225673123541 25.6007152026059 0.276991614399927 25.0345308512021 
! Port Impedance50               0                101.454359942514 0.74310397915144 

0.71             0.219848701274833 -135.233671232337 0.946842746294061 -125.647329570601 0.946842746294062 -125.647329570601 0.223904345855001 63.9964273563676 
! Gamma         !               0.253719841371492 25.9666016221917 0.280615910756139 25.391890767977  
! Port Impedance50               0                101.452499794569 0.74379493688434 

0.72             0.217814524456014 -137.118138924766 0.946967697465831 -127.431817599101 0.946967697465831 -127.431817599101 0.221691761686657 62.2963601243272 
! Gamma         !               0.257224423236455 26.332502915746  0.284248724155396 25.74925796069   
! Port Impedance50               0                101.450635118904 0.744464066627123 

0.73             0.215761602666988 -139.000739673544 0.947096949068873 -129.216798397721 0.947096949068873 -129.216798397721 0.21946180886576 60.5930897467747 
! Gamma         !               0.260737977241333 26.6984192420724 0.287888616375794 26.1066323687433 
! Port Impedance50               0                101.448767729929 0.745113412869031 

0.74             0.213690311569837 -140.881247039069 0.947230041915225 -131.002279485352 0.947230041915225 -131.002279485352 0.217215002191798 58.8865711855135 
! Gamma         !               0.264259032959073 27.0643507641601 0.291534114729889 26.4640139391812 
! Port Impedance50               0                101.446899332866 0.745744928862902 

0.75             0.21160108182743 -142.759423546035 0.947366459876193 -132.788269040117 0.947366459876194 -132.788269040117 0.214951857227678 57.1767605784061 
! Gamma         !               0.267786091555751 27.4302976489977 0.295183712964875 26.8214026263505 
! Port Impedance50               0                101.445031527548 0.746360479661323 

0.76             0.209494400387236 -144.635021303126 0.947505627187919 -134.574775840129 0.947505627187919 -134.574775840129 0.212672889774569 55.463615349743  
! Gamma         !               0.271317626282984 27.7962600673952 0.298835872083065 27.1787983915759 
! Port Impedance50               0                101.443165812332 0.74696184512293 

0.77             0.207370811349266 -146.507782688856 0.94764690582855 -136.361809193763 0.947646905828551 -136.361809193763 0.210378615354467 53.7470943558181 
! Gamma         !               0.274852082924854 28.1622381938167 0.302489021090547 27.5362012028494 
! Port Impedance50               0                101.44130358806  0.747550722879324 

0.78             0.205230916403956 -148.377441100228 0.947789592981284 -138.149378859593 0.947789592981284 -138.149378859593 0.208069548713739 52.0271580680259 
! Gamma         !               0.278387880203898 28.5282322062199 0.306141557681021 27.8936110345336 
! Port Impedance50               0                101.43944616206  0.748128731254873 

0.79             0.203075374830107 -150.243721760229 0.947932918597124 -139.937494956209 0.947932918597124 -139.937494956209 0.205746203360701 50.3037687956086 
! Gamma         !               0.281923410150221 28.8942422859042 0.309791848861054 28.2510278670775 
! Port Impedance50               0                101.437594752131 0.748697412133125 

0.8              0.200904903047544 -152.106342579506 0.948076043070736 -141.726167862184 0.948076043070737 -141.726167862184 0.203409091149906 48.5768909499884 
! Gamma         !               0.285457038437361 29.2602686173654 0.313438231522354 28.6084516867454 
! Port Impedance50               0                101.43575049051  0.749258233764775 

0.81             0.198720273723933 -153.965015067031 0.948218055042165 -143.515408106501 0.948218055042166 -143.515408106501 0.201058721925326 46.846491352438  
! Gamma         !               0.288987104688091 29.6263113881569 0.317079012966026 28.9658824853566 
! Port Impedance50               0                101.433914427786 0.749812593513237 

0.82             0.196522314440077 -155.819445283936 0.948357969336598 -145.305226249781 0.948357969336598 -145.305226249781 0.198695603233896 45.1125395866332 
! Gamma         !               0.292511922753045 29.9923707887568 0.32071247138331 29.3233202600364 
! Port Impedance50               0                101.432087536751 0.75036182053474 

0.83             0.194311905922939 -157.669334834286 0.948494725053721 -147.095632756671 0.948494725053722 -147.095632756671 0.196320240120061 43.3750083974511 