! Touchstone file from project TaperedLine_and_RadialStub
! Exported from HFSS 2018.0.0
! Variables:
!  $h = 62mil
!  $t = 0.7mil
!  h = 62mil
!  lam = 65.346mm
!  t = 0.7mil
!  w = 2.99067mm
!  w1 = 2.47403mm
!  w2 = 1.86975mm
!  w3 = 1.29407mm
!  w4 = 0.902071mm
!  w5 = 0.6694mm
!Data is not renormalized
# GHZ S MA
! Modal data exported
! Port[1] = 1:1
! Port[2] = 2:1
0                0.381093457151653 -0               0.930210626715747 -0               0.930210626715824 -0               0.388911150193926 -180             
! Gamma         !               0                0.0271427346295083 0                0.0499388853148304 
! Port Impedance47.3599894495077 0                74.7524125923107 0                

0.01             0.345816856474115 -3.46100660070867 0.937213735656755 -1.92859883265057 0.937213735656754 -1.92859883265057 0.346098745481061 176.990113486541 
! Gamma         !               0.00964536549746344 0.367052556001052 0.0150011377198873 0.360432627612285 
! Port Impedance47.486449725839  -0.124348584735261 100.024209035696 -1.34474164794686 

0.02             0.343871764336459 -5.30115319081518 0.937544590627712 -4.07186326768765 0.937544590627713 -4.07186326768768 0.344297546976311 175.552159175742 
! Gamma         !               0.0130670785085621 0.732665848306628 0.0194895194666738 0.716973209289444 
! Port Impedance47.4830693706707 0.16003716243661 99.9894230575833 -0.271818727178541 

0.03             0.342907689522681 -7.39538313418576 0.937467808275761 -6.17962903216647 0.937467808275762 -6.17962903216653 0.343382670423835 173.86784251029  
! Gamma         !               0.0165628023201073 1.09860951598845 0.0232725741414394 1.07422220161943 
! Port Impedance47.4743405897165 0.229083017049737 99.9605224322957 0.0901550274615665 

0.04             0.342140397649004 -9.57426700581496 0.937356827307607 -8.2767052975808 0.937356827307607 -8.27670529758081 0.342644959941227 172.100819124935 
! Gamma         !               0.0199402684987952 1.46457869470164 0.0267840919797336 1.43145783193382 
! Port Impedance47.4726384495796 0.27044191138099 99.9524530057514 0.266652331768694 

0.05             0.341370285810317 -11.7943004913482 0.937254475638079 -10.3689036289539 0.937254475638078 -10.3689036289539 0.341894845186275 170.293986223318 
! Gamma         !               0.0232931884152105 1.83055420307296 0.0302434290424872 1.7887265966931  
! Port Impedance47.4718477512444 0.296259623610385 99.9491226014949 0.369909237333297 

0.06             0.340531274283428 -14.0371476219038 0.937171687883922 -12.4585663664827 0.93717168788392 -12.4585663664826 0.341069779553727 168.465294915523 
! Gamma         !               0.0266725039762821 2.19653311027746 0.0337297763971683 2.14603221084656 
! Port Impedance47.4710782522108 0.312981245136911 99.9460626551721 0.437077714327769 

0.07             0.339598866314336 -16.2937057506269 0.937114514536474 -14.546942938321 0.937114514536473 -14.546942938321 0.34014643267956 166.62351603683  
! Gamma         !               0.0300867257635229 2.56250775511007 0.0372636583494761 2.50334949027361 
! Port Impedance47.4702474153077 0.324394405257347 99.9427116208796 0.483788833488909 

0.08             0.338563366029849 -18.5589985663523 0.937087042555466 -16.6347955615911 0.937087042555466 -16.6347955615911 0.339115339727376 164.77336931638  
! Gamma         !               0.0335297408759353 2.92847005159224 0.040845950315016 2.86065245250732 
! Port Impedance47.4693780804358 0.332628866000156 99.939223650331  0.517778860483772 

0.09             0.337420882088914 -20.8301270582747 0.937091763858014 -18.7226240977309 0.937091763858014 -18.7226240977309 0.337972486759714 162.917574696505 
! Gamma         !               0.0369941731019014 3.29441405820783 0.0444724668913578 3.21792281355899 
! Port Impedance47.4684841042369 0.338860085755621 99.9357195971389 0.543352159025567 

0.1              0.336169960621797 -23.1053332321606 0.937129852967495 -20.8107720834212 0.937129852967496 -20.8107720834212 0.336716191828147 161.057780074789 
! Gamma         !               0.0404750619750858 3.66033627674695 0.0481383712157316 3.57514995982606 
! Port Impedance47.4675657856602 0.34374625234269 99.9322166729591 0.563112619263333 

0.11             0.33481022555509 -25.3835261811477 0.937201506864928 -22.8994851691095 0.937201506864929 -22.8994851691094 0.335345857386813 159.195022243579 
! Gamma         !               0.0439697612865409 4.0262350884423  0.051839080777814 3.93232871001528 
! Port Impedance47.4666187729381 0.347672545802799 99.9286810364863 0.578731709576157 

0.12             0.333341803475033 -27.6640216470952 0.937306268204251 -24.9889464452869 0.93730626820425 -24.9889464452866 0.333861446157831 157.329973294916 
! Gamma         !               0.0474769377728265 4.3921100889882  0.0555702221871798 4.28945716712045 
! Port Impedance47.4656397192631 0.350879968149427 99.9250721843927 0.591329124263078 

0.13             0.331765076051374 -29.9463897275381 0.937443283942498 -27.0792987774492 0.937443283942496 -27.0792987774486 0.332263253539537 155.463079888164 
! Gamma         !               0.0509957008935084 4.75796158016081 0.0593274684645193 4.64653522134129 
! Port Impedance47.4646282100129 0.353531257547721 99.9213635318058 0.601679083229635 

0.14             0.330080575151708 -32.2303618413107 0.937611489849692 -29.1706591529191 0.937611489849689 -29.1706591529182 0.330551805605203 153.594645328248 
! Gamma         !               0.0545250882203195 5.1237902478217  0.063106465063837 5.00356366158744 
! Port Impedance47.4635866766233 0.355744202412761 99.9175470931014 0.610330224880887 

0.15             0.328288941206369 -34.5157722288467 0.937809730472457 -31.2631279044138 0.937809730472452 -31.2631279044125 0.32872781097509 151.724879507147 
! Gamma         !               0.0580638538742687 5.48959698244667 0.0669028513836486 5.36054371054875 
! Port Impedance47.4625195644247 0.357608577344099 99.9136306973368 0.617679107336006 

0.16             0.326390909213349 -36.8025204947172 0.938036829838439 -33.3567945999243 0.938036829838432 -33.3567945999226 0.326792135772385 149.853930075081 
! Gamma         !               0.0616104493629119 5.85538278972052 0.0707123380868697 5.71747681244411 
! Port Impedance47.4614324070826 0.359195022275796 99.9096328867297 0.624017144028868 

0.17             0.324387306063756 -39.090547360902 0.938291627536864 -35.4517417564459 0.938291627536856 -35.4517417564439 0.324745788412313 147.981902324569 
! Gamma         !               0.0651631019669097 6.22114875066324 0.0745308024797837 6.07436455326401 
! Port Impedance47.4603310690527 0.360560010797272 99.9055779731724 0.6295615351413  

0.18             0.322279051736879 -41.3798188723898 0.938572991965734 -37.5480471305486 0.938572991965727 -37.5480471305461 0.322589908624052 146.10887213219  
! Gamma         !               0.0687199271318155 6.58689600517831 0.0783543771873794 6.43120864006002 
! Port Impedance47.459221218319  0.361748921714936 99.9014921651961 0.634476169446985 

0.19             0.320067161103604 -43.6703160714823 0.938879819452397 -39.6457850728544 0.938879819452391 -39.6457850728516 0.320325758437236 144.234894550863 
! Gamma         !               0.0722790385764279 6.95262574423102 0.0821795194834078 6.78801089920067 
! Port Impedance47.4581080068472 0.362798167583055 99.897400910182  0.638886044525647 

0.2              0.317752745068922 -45.9620282313617 0.939211025356331 -41.7450272595633 0.939211025356327 -41.7450272595603 0.317954714283598 142.360009633011 
! Gamma         !               0.0758386388142387 7.31833920334441 0.0860030571049427 7.14477327448986 
! Port Impedance47.4569959096534 0.363736820047008 99.8933272825574 0.642887394742282 

0.21             0.315337010710906 -48.2549484113067 0.939565531301323 -43.8458430025298 0.93956553130132 -43.8458430025266 0.315478259937148 140.484246464293 
! Gamma         !               0.0793970844210406 7.68403765452697 0.0898222114040145 7.50149781803988 
! Port Impedance47.4558886729107 0.364587930349288 99.8892911614277 0.646554919221928 

0.22             0.312821260476141 -50.5490705252654 0.939942251285031 -45.9482992695218 0.939942251285031 -45.9482992695186 0.312897980222995 138.607626023941 
! Gamma         !               0.0829529267453001 8.04972239609481 0.0936346011961302 7.85818667299292 
! Port Impedance47.4547893305376 0.365369634355474 99.8853089530744 0.649947016314397 

0.23             0.310206890638427 -52.8443873935928 0.940340078443571 -48.0524605037468 0.940340078443574 -48.0524605037436 0.310215555480557 136.730163263834 
! Gamma         !               0.0865049317377897 8.41539474092575 0.0974382315651624 8.21484204994016 
! Port Impedance47.4537002595205 0.36609608493295 99.8813936603982 0.653109626173473 

0.24             0.307495389254011 -55.1408894293929 0.940757873580185 -50.1583883064706 0.94075787358019 -50.1583883064676 0.307432756766331 134.851868658589 
! Gamma         !               0.0900520835618812 8.78105600404427 0.101231471861337 8.57146619974351 
! Port Impedance47.4526232537489 0.366778236163997 99.877555153053  0.656079087254306 

0.25             0.304688333821294 -57.4385637301106 0.941194456101422 -52.2661410317353 0.941194456101428 -52.2661410317325 0.304551441764396 132.972749390493 
! Gamma         !               0.0935935765561849 9.14670749041528 0.105013026642477 8.92806138535502 
! Port Impedance47.4515596034927 0.367424497383836 99.8738005370054 0.658884284437295 

0.26             0.301787388809995 -59.7373934234728 0.941648597672253 -54.3757733331947 0.941648597672261 -54.3757733331923 0.301573551355199 131.092810276397 
! Gamma         !               0.0971287995252025 9.51235048365505 0.108781902640281 9.28462985472235 
! Port Impedance47.4505101728963 0.368041272966228 99.8701345573346 0.661548281424392 

0.27             0.298794303180145 -62.0373571685907 0.942119018658842 -56.4873356969934 0.94211901865885 -56.4873356969913 0.298501106779627 129.212054506916 
! Gamma         !               0.100657315561521 9.87798623613729 0.112537374143672 9.64117381624667 
! Port Impedance47.4494754713956 0.368633402966187 99.8665599936652 0.664089572822834 

0.28             0.295710907972019 -64.3384287471399 0.94260438724777 -58.6008739896002 0.942604387247778 -58.6008739895985 0.29533620732687 127.330484244205 
! Gamma         !               0.104178839832377 10.2436159607665 0.116278948562113 9.99769541768415 
! Port Impedance47.4484557172217 0.369204518980245 99.8630780253782 0.666523052358318 

0.29             0.292539114016179 -66.6405767020263 0.943103320998924 -60.716429044619 0.943103320998932 -60.7164290446177 0.292081028470158 125.448101108565 
! Gamma         !               0.107693217079722 10.6092408245135 0.12000633339797 10.3541967289065 
! Port Impedance47.4474508925211 0.369757328569932 99.8596885555378 0.66886076680252 

0.3              0.289280909788423 -68.9437639957662 0.943614390498069 -62.8340363074449 0.943614390498075 -62.8340363074439 0.288737820373186 123.564906573446 
! Gamma         !               0.111200400017912 10.9748619436774 0.12371940542649 10.7106797285787 
! Port Impedance47.4464607903998 0.370293840321252 99.8563904899538 0.671112506471708 

0.31             0.285938359416443 -71.2479476705655 0.944136124719988 -64.9537255512164 0.944136124719992 -64.9537255512159 0.285308906690908 121.680902281165 
! Gamma         !               0.114700429369843 11.3404803807527 0.127418182548374 11.0671462945641 
! Port Impedance47.4454850545875 0.370815540190859 99.8531819722939 0.673286269932412 

0.32             0.282513600832418 -73.5530784984832 0.944667017690131 -67.0755206720581 0.944667017690131 -67.0755206720579 0.281796683590642 119.796090286739 
! Gamma         !               0.118193415949164 11.7060971427216 0.13110279853096 11.4235981977123 
! Port Impedance47.4445232125831 0.371323528334019 99.8500605786371 0.675388631099722 

0.33             0.279008844057276 -75.8591006142703 0.945205536037764 -69.1994395664243 0.945205536037762 -69.1994395664245 0.278203618922588 117.910473233896 
! Gamma         !               0.121679524955905 12.0717131805722 0.134773480674915 11.7800370986009 
! Port Impedance47.4435747031636 0.371818624208488 99.8470234760363 0.677425030072909 

0.34             0.275426369596991 -78.1659511262186 0.945750127061633 -71.3254940887672 0.945750127061627 -71.3254940887676 0.274532251472635 116.024054464979 
! Gamma         !               0.125158962487394 12.4373293898289 0.138430530320285 12.136464546769  
! Port Impedance47.4426388990938 0.372301446459485 99.8440675500175 0.679400004037401 

0.35             0.271768526928262 -80.4735597021766 0.946299226974094 -73.4536900839976 0.946299226974084 -73.4536900839982 0.27078519023447 114.136838064958 
! Gamma         !               0.128631964158356 12.8029466118957 0.142074306025796 12.4928819819891 
! Port Impedance47.4417151257884 0.372772472943702 99.8411895058253 0.681317370839871 

0.36             0.268037733049505 -82.7818481291243 0.946851269045478 -75.5840274864404 0.946851269045465 -75.5840274864411 0.266965113642428 112.248828838642 
! Gamma         !               0.13209878565955 13.1685656360258 0.145705209208096 12.849290737145  
! Port Impedance47.4408026765833 0.373232085254618 99.838385947839  0.683180375047051 

0.37             0.264236471072806 -85.0907298456056 0.947404691431041 -77.7165004752356 0.947404691431025 -77.7165004752364 0.263074768711182 110.360032219504 
! Gamma         !               0.135559695050809 13.5341872017497 0.149323672004103 13.2056920423346 
! Port Impedance47.4399008251814 0.373680601264741 99.8356534410848 0.684991804176772 

0.38             0.260367288832968 -87.4001094471069 0.947957944523077 -79.8510976753451 0.947957944523058 -79.851097675346 0.259116970033254 108.470454108044 
! Gamma         !               0.139014966572762 13.8998120016227 0.152930147113247 13.5620870298569 
! Port Impedance47.4390088357461 0.374118298491531 99.832988558228  0.686754081160597 

0.39             0.256432797490626 -89.7098821653063 0.948509497726576 -81.9878023933588 0.948509497726555 -81.9878023933597 0.25509459859038 106.580100637299 
! Gamma         !               0.142464875764534 14.2654406841679 0.156525099381355 13.9184767397962 
! Port Impedance47.4381259710438 0.374545430508534 99.8303879149077 0.688469337837879 

0.4              0.252435670107332 -92.0199333232141 0.949057845605244 -84.1265928779719 0.949057845605221 -84.1265928779728 0.251010600340031 104.688977862849 
! Gamma         !               0.145909695686888 14.6310738569179 0.160108998900527 14.2748621259654 
! Port Impedance47.4372514989677 0.374962238145025 99.827848195798  0.690139473297765 

0.41             0.248378640171044 -94.3301377698039 0.949601513384295 -86.2674425961418 0.949601513384272 -86.2674425961426 0.246867984543815 102.797091374531 
! Gamma         !               0.149349694067784 14.9967120894756 0.163682315416388 14.6312440620143 
! Port Impedance47.4363846977185 0.375368956831099 99.8253661733542 0.691766200113387 

0.42             0.244264500050143 -96.6403593001408 0.950139061826634 -88.4103205173331 0.95013906182661 -88.4103205173338 0.242669821810098 100.904445826843 
! Gamma         !               0.152785131207342 15.362355916534  0.167245513853399 14.9876233475481 
! Port Impedance47.4355248598736 0.375765821135104 99.8229387208362 0.693351080902305 

0.43             0.240096099351764 -98.9504500707249 0.950669091520179 -90.5551913997692 0.950669091520156 -90.5551913997698 0.238419241828845 99.0110443848502 
! Gamma         !               0.156216258499857 15.7280058408047 0.170799050789002 15.3440007141376 
! Port Impedance47.4346712955338 0.376153067294058 99.8205628208923 0.694895557163249 

0.44             0.235876343154364 -101.260250025531 0.951190246627201 -92.7020160740952 0.951190246627177 -92.7020160740957 0.234119430782521 97.1168880821183 
! Gamma         !               0.15964331745061 16.0936623358251 0.174343371727135 15.700376831133  
! Port Impedance47.4338233347084 0.376530934343262 99.8182355707302 0.696400971952735 

0.45             0.231608190071748 -103.569586357141 0.951701218152854 -94.8507517212259 0.951701218152832 -94.8507517212264 0.229773628422665 95.221975086863  
! Gamma         !               0.163066539083932 16.4593258486183 0.177878909040535 16.0567523112162 
! Port Impedance47.432980329068  0.376899664299137 99.8159541846862 0.697868587656333 

0.46             0.22729465008035 -105.878273041149 0.952200746791104 -97.0013521423481 0.952200746791083 -97.0013521423485 0.225385124807549 93.3262998720312 
! Gamma         !               0.166486143655985 16.824996802192  0.181406080468624 16.4131277156491 
! Port Impedance47.4321416531785 0.377259501731003 99.8137159948365 0.699299599862256 

0.47             0.222938781992403 -108.18611050317 0.952687625403302 -99.1537680200306 0.952687625403284 -99.1537680200309 0.220957256702023 91.4298522844387 
! Gamma         !               0.169902340600796 17.1906755978672 0.184925288073727 16.7695035591918 
! Port Impedance47.4313067053045 0.377610692966368 99.8115184501497 0.7006951481456  

0.48             0.218543690363072 -110.492885509897 0.953160701179208 -101.307947170171 0.953160701179192 -101.307947170171 0.216493403646154 89.5326165073158 
! Gamma         !               0.173315328651166 17.5563626174354 0.188436917572511 17.1258803146755 
! Port Impedance47.4304749078627 0.377953485104493 99.8093591145719 0.702056324411461 

0.49             0.214112521438287 -112.798371422934 0.95361887752313 -103.463834785074 0.953618877523117 -103.463834785074 0.211996983704561 87.634569909649  
! Gamma         !               0.176725296087354 17.9220582251449 0.191941337972196 17.4822584172294 
! Port Impedance47.4296457075873 0.378288124960284 99.8072356643454 0.703384179316847 

0.5              0.209648457400436 -115.10232901995 0.954061115700243 -105.621373668341 0.954061115700232 -105.621373668341 0.207471448913365 85.7356817745093 
! Gamma         !               0.180132421075922 18.2877627695193 0.195438901452023 17.8386382681645 
! Port Impedance47.4288185754625 0.378614858020867 99.8051458847932 0.704679727187119 

0.51             0.205154707492646 -117.404508165994 0.954486436270394 -107.780504462483 0.954486436270386 -107.780504462483 0.202920280446254 83.8359118970947 
! Gamma         !               0.183536872069121 18.6534765850192 0.19892994344009 18.1950202385256 
! Port Impedance47.4279930064674 0.378933927467957 99.8030876667447 0.705943949758719 

0.52             0.200634493295436 -119.704650668361 0.954893920329564 -109.941165870251 0.954893920329558 -109.941165870251 0.198346983525461 81.9352090414382 
! Gamma         !               0.186938808241752 19.019199993549  0.202414782843872 18.5514046723253 
! Port Impedance47.4271685191713 0.379245573297711 99.8010590027374 0.707177799013254 

0.53             0.196091022947033 -122.002494517335 0.955282710572712 -112.103294870697 0.955282710572709 -112.103294870697 0.193755082107146 80.0335092425971 
! Gamma         !               0.190338379947853 19.3849333058237 0.205893722399798 18.9077918894788 
! Port Impedance47.4263446552114 0.379550031554413 99.7990579830942 0.708382199312728 

0.54             0.191527444631966 -124.297778908177 0.955652012186295 -114.266826930886 0.955652012186294 -114.266826930886 0.189148113374011 78.1307339385838 
! Gamma         !               0.193735729183914 19.7506768226018 0.209367049113275 19.264182188456  
! Port Impedance47.4255209786799 0.379847533683574 99.7970827919517 0.709558049003134 

0.55             0.186946762803325 -126.590246521538 0.956001093574302 -116.431696214064 0.956001093574302 -116.431696214064 0.184529622070695 76.2267879132533 
! Gamma         !               0.197130990048833 20.1164308357954 0.212835034765619 19.6205758486737 
! Port Impedance47.4246970754426 0.380138306002795 99.7951317032938 0.71070622161717 

0.56             0.182351695292437 -128.879630841068 0.956329286918223 -118.597835784908 0.956329286918226 -118.597835784908 0.179903154719739 74.3215570277436 
! Gamma         !               0.200524289193607 20.4821956294675 0.21629793646864 19.976973132645  
! Port Impedance47.4238725524079 0.380422569283974 99.7932030770319 0.711827566779847 

0.57             0.177744469566714 -131.165594852476 0.956635988568921 -120.765177812343 0.956635988568926 -120.765177812343 0.175272253757646 72.414905713771  
! Gamma         !               0.203915746255924 20.8479714807252 0.219755997251235 20.3333742879078 
! Port Impedance47.4230470367618 0.380700538437633 99.7912953551588 0.71292291089715 

0.58             0.173126685243831 -133.447552502219 0.956920659266731 -122.933653770188 0.956920659266736 -122.933653770188 0.170640451631732 70.5066741969877 
! Gamma         !               0.207305474276522 21.2137586605186 0.223209446665317 20.6897795487501 
! Port Impedance47.422220175182  0.380972422288527 99.7894070579974 0.713993057690598 

0.59             0.168499746230252 -135.72432099577 0.957182824185316 -125.10319463575 0.957182824185322 -125.10319463575 0.166011264899227 68.5966754125574 
! Gamma         !               0.210693580095439 21.5795574343539 0.226658501400964 21.0461891377517 
! Port Impedance47.4213916330411 0.381238423431399 99.7875367805583 0.715038788625525 

0.6              0.163866667560537 -137.993856481187 0.957422072794585 -127.273731086314 0.957422072794592 -127.273731086314 0.161388188370374 66.6846915679126 
! Gamma         !               0.214080164727292 21.9453680629283 0.23010336590267 21.4026032671582 
! Port Impedance47.4205610936088 0.381498738155491 99.7856831890138 0.716060863269821 

0.61             0.159234401759742 -140.253882288855 0.957638058538328 -129.445193693319 0.957638058538337 -129.445193693319 0.156774689337238 64.7704702990861 
! Gamma         !               0.217465323715377 22.3111908026956 0.233544232980376 21.7590221401039 
! Port Impedance47.4197282572587 0.381753556427377 99.7838450172949 0.717060019610711 

0.62             0.15461252303483 -142.503423825551 0.957830498323012 -131.617513113894 0.95783049832302 -131.617513113894 0.152174201929583 62.8537203567632 
! Gamma         !               0.220849147464921 22.6770259063676 0.236981284410305 22.1154459516997 
! Port Impedance47.418892840687  0.3820030619221  99.7820210638133 0.71803697434971 

0.63             0.150008120652651 -144.743114305262 0.957999171815274 -133.790620279308 0.957999171815283 -133.790620279308 0.147590121638628 60.9341067459217 
! Gamma         !               0.224231721556164 23.04287362336   0.240414691521827 22.4718748899973 
! Port Impedance47.4180545761464 0.382247432093775 99.7802101883102 0.718992423190747 

0.64             0.14542397877291 -146.97373313003 0.958143920547048 -135.964446579819 0.958143920547057 -135.964446579819 0.143025800048891 59.0112452281481 
! Gamma         !               0.227613127038151 23.4087342001858 0.243844615767498 22.8283091368452 
! Port Impedance47.4172132106991 0.382486838277759 99.7784113088305 0.719927041131689 

0.65             0.14086105011281 -149.195204003258 0.958264646828744 -138.138924045314 0.958264646828753 -138.138924045314 0.138484539817699 57.0846960778641 
! Gamma         !               0.230993440704281 23.7746078808048 0.247271209274206 23.1847488686463 
! Port Impedance47.4163685054922 0.382721445817414 99.7766233988213 0.720841482765972 

0.66             0.136320600047391 -151.406692066011 0.958361312472589 -140.313985521109 0.958361312472597 -140.313985521109 0.133969589941548 55.1539569620325 
! Gamma         !               0.234372735350696 24.1404949069314 0.250694615373981 23.5411942570269 
! Port Impedance47.4155202350569 0.382951414209559 99.7748454843528 0.721736382599355 

0.67             0.131804699241866 -153.606968964269 0.958433937329888 -142.489564838231 0.958433937329895 -142.489564838231 0.1294841413484  53.2184547865093 
! Gamma         !               0.237751080018623 24.5063955183069 0.254114969113501 23.8976454694294 
! Port Impedance47.4146681866329 0.383176897263505 99.7730766414589 0.7226123553833  

0.68             0.127316012858031 -155.794623922115 0.958482597647664 -144.665596977511 0.958482597647671 -144.665596977511 0.125031322855438 51.2775363198731 
! Gamma         !               0.241128540221765 24.8723099529389 0.257532397741776 24.254102669634  
! Port Impedance47.4138121595192 0.383398043269444 99.7713159935948 0.723469996466596 

0.69             0.122857531170383 -157.968130835681 0.958507424251781 -146.842018226798 0.958507424251787 -146.842018226798 0.120614197533018 49.330457365782  
! Gamma         !               0.244505178159787 25.2382384473121 0.260947021175782 24.6105660182197 
! Port Impedance47.412951964452  0.383614995172675 99.7695627092074 0.724309882164615 

0.7              0.118432393932959 -160.125848303564 0.958508600565187 -149.018766330643 0.958508600565192 -149.018766330643 0.116235759517716 47.3763702057051 
! Gamma         !               0.247881052918875 25.6041812365741 0.264358952444065 24.9670356729689 
! Port Impedance47.4120874230096 0.383827890750783 99.7678159994173 0.725132570145621 

0.71             0.114043795395219 -162.265995494556 0.958486360471403 -151.195780631823 0.958486360471407 -151.195780631823 0.111898931320976 45.414308972731  
! Gamma         !               0.251256220660301 25.9701385546977 0.26776829810857 25.3235117892251 
! Port Impedance47.4112183670439 0.384036862791432 99.7660751158062 0.725938599832079 

0.72             0.109694936907282 -164.386619940741 0.958440986034697 -153.373002204121 0.958440986034701 -153.373002204121 0.107606561685083 43.4431725407529 
! Gamma         !               0.254630734797839 26.3361106346236 0.271175158665071 25.6799945202055 
! Port Impedance47.4103446381393 0.384242039269006 99.7643393483096 0.726728492815828 

0.73             0.105389004667883 -166.485561600587 0.958372805089541 -155.550373975817 0.958372805089544 -155.550373975817 0.103361424045779 41.4617044173601 
! Gamma         !               0.258004646164799 26.7020977083856 0.2745796289227  26.0364840172766 
! Port Impedance47.4094660870971 0.384443543518616 99.7626080232081 0.727502753284742 

0.74             0.101129160471502 -168.560413333339 0.958282188713   -157.727840843427 0.958282188713002 -157.727840843427 0.0991662156712374 39.4684690075634 
! Gamma         !               0.261378003171409 27.068100007219  0.277981798363185 26.3929804301954 
! Port Impedance47.4085825734463 0.384641494406432 99.7608805012162 0.7282618684585  

0.75             0.0969185394378089 -170.608476553988 0.958169548594541 -159.905349775265 0.958169548594543 -159.905349775265 0.0950235575613478 37.4618234615375 
! Gamma         !               0.264750851953161 27.4341177616562 0.281381751480444 26.7494839073198 
! Port Impedance47.4076939649788 0.384836006495562 99.7591561756639 0.729006309032042 

0.76             0.0927602519113484 -172.626710357673 0.958035334318413 -162.082849904491 0.958035334318414 -162.082849904491 0.0909359952103074 35.439884122933  
! Gamma         !               0.268123236510727 27.8001512016085 0.284779568101229 27.1059945957938 
! Port Impedance47.4068001373085 0.385027190206898 99.7574344707686 0.729736529623983 

0.77             0.0886573883395225 -174.611672121867 0.957880030574268 -164.260292611382 0.957880030574269 -164.260292611382 0.0869060003610572 33.4004863416698 
! Gamma         !               0.271495198841949 28.166200556439  0.288175323687569 27.4625126417082 
! Port Impedance47.4059009734546 0.385215151974631 99.7557148399929 0.730452969228318 

0.78             0.0846130267705317 -176.5594472819  0.957704154312008 -166.437631594612 0.957704154312008 -166.437631594612 0.0829359739140392 31.3411360885913 
! Gamma         !               0.274866779066398 28.5322660550236 0.291569089621745 27.8190381902407 
! Port Impedance47.4049963634462 0.385399994396183 99.7539967644856 0.731156051667652 

0.79             0.0806302430748889 -178.465565550563 0.957508251856993 -168.614822931455 0.957508251856992 -168.614822931455 0.0790282501980213 29.2589513847598 
! Gamma         !               0.278238015542925 28.898347925805  0.294960933474556 28.1755713857774 
! Port Impedance47.404086203949  0.385581816376496 99.7522797516023 0.731846186045887 

0.8              0.0767121242925029 179.675099720872 0.957292896001734 -170.791825126837 0.957292896001733 -170.791825126837 0.0751851028711698 27.1505910026708 
! Gamma         !               0.281608944980594 29.2644463968385 0.298350919257618 28.5321123720189 
! Port Impedance47.4031703979123 0.385760713266716 99.750563333503  0.732523767199025 

0.81             0.0728617857485679 177.868453092625 0.957058683090017 -172.968599151296 0.957058683090015 -172.968599151296 0.0714087528016142 25.0121671654477 
! Gamma         !               0.28497960254336 29.6305616958317 0.30173910766047 28.8886612920709 
! Port Impedance47.4022488542357 0.385936776997345 99.7488470658227 0.733189176142942 

0.82             0.0690823928244506 176.121324505675 0.95680623010907 -175.145108467943 0.956806230109068 -175.145108467943 0.0677013783860547 22.8391380017063 
! Gamma         !               0.288350021948822 29.9966940501773 0.305125556273176 29.2452182885231 
! Port Impedance47.4013214874542 0.386110096205976 99.7471305264116 0.733842780516105 
