! Touchstone file from project TaperedLine_and_RadialStub
! Exported from HFSS 2018.0.0
! Variables:
!  $h = 62mil
!  $t = 0.7mil
!  h = 62mil
!  lam = 65.346mm
!  t = 0.7mil
!  w = 2.99067mm
!  w5 = 0.6694mm
!  z0 = 50
!  zL = 100
!Data is not renormalized
# GHZ S MA
! Modal data exported
! Port[1] = 1:1
! Port[2] = 2:1
0                0.386481684280268 -0               0.931514809133295 -0               0.931514809133213 -0               0.388734083028412 -180             
! Gamma         !               0.0443045616596119 0                0.0210125801313208 0                
! Port Impedance51.8915957354813 0                100.514762490844 0                

0.01             0.345463140668768 -3.10890173884741 0.937371833976876 -1.92440016437189 0.937371833976876 -1.9244001643719 0.345691060508349 176.794436495563 
! Gamma         !               0.009509338725317 0.366996295623916 0.0145627257415959 0.360745101329529 
! Port Impedance47.341631495608  -0.145266248424105 100.369177693373 -1.43359491898695 

0.02             0.343796180410253 -4.69326790501514 0.937618367353708 -4.04779862417983 0.937618367353708 -4.04779862417996 0.344158853398955 175.075563921592 
! Gamma         !               0.0132663760306682 0.732733906806722 0.0191576394675229 0.718386839403197 
! Port Impedance47.326579421733  0.120331577424457 100.274875439146 -0.292404656729924 

0.03             0.342911607717693 -6.51746339615059 0.937520803453011 -6.14050182073414 0.937520803453011 -6.14050182073416 0.343324278568939 173.1159973713   
! Gamma         !               0.0164935509946902 1.09840157066646 0.0229359178536981 1.07573934053156 
! Port Impedance47.3239290705213 0.218190124604872 100.260078071666 0.0526507467026748 

0.04             0.342216282726063 -8.41800014419393 0.937394463700944 -8.22295027064249 0.937394463700944 -8.22295027064244 0.342648298199721 171.082880860308 
! Gamma         !               0.0198046165573378 1.46424736297626 0.0264805965962228 1.43335465293557 
! Port Impedance47.3224520114896 0.263982324683734 100.251796855478 0.234084261433127 

0.05             0.34153678762781 -10.3567658755441 0.937269771155764 -10.3006899314667 0.937269771155765 -10.3006899314666 0.341974199209962 169.014467275524 
! Gamma         !               0.0231715421234702 1.83015358410024 0.0299819272285676 1.79109748175645 
! Port Impedance47.3213284116969 0.289916984979293 100.246090510953 0.343426486585057 

0.06             0.340810018486571 -12.3176267255936 0.937156363842017 -12.3760129977022 0.937156363842017 -12.3760129977021 0.341244690366603 166.926811555233 
! Gamma         !               0.026561573736582 2.19606306211155 0.0334975560705568 2.14887084163158 
! Port Impedance47.3203705992721 0.306793417653638 100.241636672391 0.414471260999016 

0.07             0.340010993469042 -14.2924902686184 0.937060871335393 -14.4500700001229 0.937060871335393 -14.4500700001229 0.340437063765581 164.828074214561 
! Gamma         !               0.0299691085236083 2.56195888611059 0.0370479463060392 2.50663633333974 
! Port Impedance47.3194702618677 0.318672897654664 100.237713650741 0.463474845939427 

0.08             0.339129097212134 -16.2769552653441 0.936988017801053 -16.5235145883573 0.936988017801053 -16.5235145883573 0.339541710118674 162.722852888526 
! Gamma         !               0.0333981864733806 2.92783878682238 0.0406401837037439 2.86438111522072 
! Port Impedance47.3185655201073 0.327376674368705 100.233936090711 0.498999602390668 

0.09             0.338159582075391 -18.2685180864394 0.936940764293622 -18.5967565090394 0.936940764293621 -18.5967565090394 0.338554380878939 160.613933684125 
! Gamma         !               0.0368524329436352 3.29370326206202 0.0442752772373818 3.22209960193834 
! Port Impedance47.31762742978   0.333901223175873 100.23012019933  0.52579652271899 

0.1              0.337100271304704 -20.2657292644514 0.936920641122527 -20.6700752046138 0.936920641122526 -20.6700752046138 0.337473173485189 158.503104941912 
! Gamma         !               0.0403323009482557 3.6595519524335  0.0479510419475649 3.57978700672671 
! Port Impedance47.3166467633722 0.338881013538011 100.22619419515  0.546636689679568 

0.11             0.335950191979899 -22.2677582902572 0.936928158536366 -22.7436757101551 0.936928158536365 -22.743675710155 0.336297280938077 156.391573814533 
! Gamma         !               0.043835437292838 4.02538334413986 0.0516635372258417 3.93743813132992 
! Port Impedance47.3156244713882 0.34275374978175 100.22214415267  0.563226653371882 

0.12             0.334708978711945 -24.2741527375183 0.936963172711425 -24.817718129633 0.936963172711425 -24.8177181296329 0.3350264498645  154.280195791478 
! Gamma         !               0.0473578431438239 4.39119539170537 0.0554079124860759 4.29504782878583 
! Port Impedance47.3145659730657 0.345830525405015 100.21798361674  0.576677819517117 

0.13             0.333376603276213 -26.2846979616911 0.937025161362495 -26.8923340583541 0.937025161362494 -26.8923340583541 0.333660738881598 152.169608226933 
! Gamma         !               0.050894924527772 4.75698615472307 0.0591789439844454 4.65261168524733 
! Port Impedance47.3134781343157 0.348333542995509 100.213737348209 0.587752589399399 

0.14             0.331953247785888 -28.2993324191542 0.937113409316105 -28.9676361495383 0.937113409316104 -28.9676361495382 0.332200408828988 150.060311088884 
! Gamma         !               0.0544422019742809 5.12275420524855 0.0629713823439307 5.01012647266678 
! Port Impedance47.3123678352031 0.350420776683784 100.209432992216 0.596997150112275 

0.15             0.330439242736396 -30.3180952947081 0.937227122106079 -31.0437238924312 0.937227122106078 -31.0437238924311 0.330645871935024 147.952717141978 
! Gamma         !               0.0579957010558666 5.48849880511019 0.0667801754815161 5.36759031949686 
! Port Impedance47.3112413814228 0.352203754215665 100.205097059765 0.604815894522811 

0.16             0.328835034794964 -32.3410935544818 0.937365488438422 -33.1206872043145 0.937365488438421 -33.1206872043143 0.328997667336068 145.847183759495 
! Gamma         !               0.0615521126469447 5.85421991925866 0.0706006071998138 5.72500266934017 
! Port Impedance47.3101043242149 0.353760736782705 100.200753205944 0.611515202701428 

0.17             0.3271411683602  -34.3684809564892 0.937527709214557 -35.1986087130111 0.937527709214556 -35.1986087130108 0.327256448195188 143.744033408884 
! Gamma         !               0.0651088098438844 6.21991813371726 0.0744283777081007 6.08236411417442 
! Port Impedance47.3089614577129 0.355146451561897 100.19642169457  0.617330694362618 

0.18             0.3253582736137  -36.4004445419642 0.937713006231075 -37.2775652292357 0.937713006231073 -37.2775652292355 0.325422973777498 141.643567032091 
! Gamma         !               0.0686637872698471 6.58559453029071 0.0782596435901424 6.43967617151568 
! Port Impedance47.30781688098   0.356399178412703 100.192119443633 0.622445216574823 

0.19             0.323487057800693 -38.4371958616186 0.937920619536174 -39.3576287036775 0.937920619536173 -39.3576287036773 0.323498103579332 139.546072915743 
! Gamma         !               0.0722155664625236 6.95125055200996 0.082091029260906 6.79694105191149 
! Port Impedance47.3066740746991 0.357545827588018 100.187860325986 0.627001373457018 

0.2              0.321528298328121 -40.4789652266687 0.938149799242269 -41.4388668487169 0.938149799242267 -41.4388668487167 0.321482792324835 137.451832675079 
! Gamma         !               0.0757630937132054 7.31688787866761 0.0859196185282872 7.15416144379184 
! Port Impedance47.305535973343  0.358605522035823 100.183655555339 0.631110646613957 

0.21             0.319482837103162 -42.5259979084561 0.938399795349892 -43.521343537799 0.938399795349891 -43.5213435377988 0.319378085409714 135.361125380792 
! Gamma         !               0.0793056446740397 7.68250832161698 0.0897429326564254 7.51134032889273 
! Port Impedance47.304405027606  0.359592088740626 100.179514073604 0.634860252278176 

0.22             0.317351575891792 -44.5785516046427 0.938669847638199 -45.6051190553812 0.938669847638199 -45.6051190553809 0.317185114692364 133.274230487248 
! Gamma         !               0.0828427423176063 8.04811374058041 0.0935588997841541 7.86848083257201 
! Port Impedance47.3032832574229 0.360515768457203 100.175442902483 0.638318409978908 

0.23             0.315135472612684 -46.6368947376776 0.938959176714772 -47.6902502456222 0.938959176714771 -47.6902502456219 0.314905094648503 131.191429986654 
! Gamma         !               0.0863740902109785 8.41370598158437 0.0973658193912049 8.22558610811491 
! Port Impedance47.3021722975726 0.361384374402452 100.171447446812 0.641538445240349 

0.24             0.312835538520225 -48.7013053081439 0.939266976721559 -49.7767905923056 0.939266976721558 -49.7767905923054 0.312539318932068 129.113010064741 
! Gamma         !               0.0898995205251425 8.77928683333363 0.101162324580418 8.58265925142278 
! Port Impedance47.3010734379147 0.362204068097719 100.167531749462 0.644562008309153 

0.25             0.310452836230138 -50.7720701255743 0.93959240983915 -51.8647902523147 0.939592409839149 -51.8647902523145 0.310089157376807 127.039262437919 
! Gamma         !               0.0934189549740581 9.14485799870014 0.104947344191406 8.93970324134048 
! Port Impedance47.2999876598345 0.362979872881986 100.163698702938 0.647421608364316 

0.26             0.307988478528849 -52.8494843033216 0.939934602531356 -53.954296058224 0.939934602531355 -53.9542960582239 0.307556053454353 124.970485489987 
! Gamma         !               0.0969323764379073 9.5104210780157  0.108720066150043 9.29672090072128 
! Port Impedance47.2989156699197 0.363716010140786 100.15995022462  0.650142610912009 

0.27             0.30544362789487 -54.9338509451827 0.940292643368357 -56.0453515010044 0.940292643368356 -56.0453515010043 0.304941522186015 122.906985286344 
! Gamma         !               0.100439809025796 9.87597756119107 0.112479902972492 9.65371487365212 
! Port Impedance47.2978579314422 0.364416117435217 100.156287402511 0.652744811340834 

0.28             0.302819496651152 -57.0254809779481 0.940665582221702 -58.1379967006881 0.940665582221701 -58.137996700688 0.302247148490681 120.849076517235 
! Gamma         !               0.1039413045562  10.2415288261723 0.1162264599673  10.01068761486   
! Port Impedance47.296814693907  0.365083389174013 100.152710617563 0.655243672844516 

0.29             0.300117347662455 -59.1246931011284 0.941052430614142 -60.2322683706431 0.941052430614141 -60.232268370643 0.299474585940769 118.797083404257 
! Gamma         !               0.107436933747835 10.6070761417273 0.119959506399337 10.3676413879776 
! Port Impedance47.2957860207434 0.365720667363328 100.149219647512 0.657651298394745 

0.3              0.297338495490865 -61.2318138361294 0.941452163016351 -62.3281997795453 0.94145216301635 -62.3281997795452 0.296625555891556 116.751340592792 
! Gamma         !               0.110926780744118 10.9726206730229 0.123678949679029 10.7245782699913 
! Port Impedance47.2947718151142 0.366330500817924 100.14581375613  0.659977192138   

0.31             0.294484307924763 -63.3471776642553 0.941863718901719 -64.4258207140257 0.941863718901719 -64.4258207140256 0.2937018469456  114.71219404534  
! Gamma         !               0.114410939901765 11.3381634888352 0.127384812503596 11.0815001597866 
! Port Impedance47.2937718437941 0.366915184906489 100.142491770844 0.66222885431659 

0.32             0.291556207800805 -65.4711272475031 0.942286005393673 -66.5251574441687 0.942286005393673 -66.5251574441687 0.29070531471249 112.680001945508 
! Gamma         !               0.117889514040372 11.7037055695566 0.13107721278966 11.4384087891938 
! Port Impedance47.2927857590679 0.367476789605336 100.139252150921 0.664412244837269 

0.33             0.28855567504417 -67.6040137290574 0.942717900364181 -68.6262326934567 0.94271790036418 -68.6262326934566 0.287637881824071 110.655135618879 
! Gamma         !               0.121362613569514 12.0692478154206 0.134756346185918 11.7953057353619 
! Port Impedance47.2918131186301 0.368017180746471 100.136093047832 0.666532143428647 

0.34             0.285484248858703 -69.746197112289 0.943158255865102 -70.7290656143339 0.943158255865101 -70.7290656143339 0.284501538166056 108.637980474544 
! Gamma         !               0.124830356084913 12.4347910545496 0.138422470930468 12.1521924336119 
! Port Impedance47.2908534034998 0.368538037435205 100.13301235897  0.668592428575375 

0.35             0.282343530005316 -71.8980467182915 0.943605901795022 -72.8336717702599 0.943605901795022 -72.8336717702599 0.281298341288184 106.628936969383 
! Gamma         !               0.128292866159929 12.8003360505824 0.142075894811443 12.509070190182  
! Port Impedance47.2899060339999 0.369040867371893 100.130007775593 0.670596292811233 

0.36             0.279135183113639 -74.059941722783 0.94405964972256 -74.9400631248924 0.94405964972256 -74.9400631248925 0.278030416956492 104.628421595959 
! Gamma         !               0.131750275159623 13.1658835097371 0.145716963995786 12.8659401944777 
! Port Impedance47.2889703838768 0.369527021025682 100.127076825627 0.672546408273214 

0.37             0.275860938978393 -76.2322717737411 0.944518296802903 -77.048248038883 0.944518296802902 -77.0482480388831 0.274699959812755 102.636867894016 
! Gamma         !               0.135202720977939 13.5314340872443 0.149346053504435 13.2228035305854 
! Port Impedance47.2880457926663 0.369997705124614 100.124216911825 0.674445053484002 

0.38             0.272522596798011 -78.415437691511 0.944980629737495 -79.1582312746406 0.944980629737494 -79.1582312746407 0.271309234107521 100.654727484875 
! Gamma         !               0.138650347650035 13.8969883931319 0.152963559129787 13.5796611879171 
! Port Impedance47.2871315764201 0.370453995642433 100.121425345682 0.676294209996552 

0.39             0.269122026318726 -80.6098522534062 0.945445428737658 -81.2700140093346 0.945445428737657 -81.2700140093346 0.267860574474474 98.6824711274958 
! Gamma         !               0.142093304826521 14.2625469973778 0.156569890610559 13.9365140709336 
! Port Impedance47.2862270369263 0.370896850306486 100.118699377434 0.678095635681518 

0.4              0.265661169852527 -82.8159410650465 0.94591147146169 -83.3835938563357 0.945911471461689 -83.3835938563358 0.264356386715019 96.7205897944696 
! Gamma         !               0.145531747118434 14.6281104344675 0.160165465898771 14.2933630079414 
! Port Impedance47.2853314695565 0.371327120575841 100.116036222441 0.679850919971914 

0.41             0.262142044142192 -85.0341435208697 0.946377536901921 -85.4989648952429 0.946377536901921 -85.4989648952429 0.260799148563044 94.7695957657974 
! Gamma         !               0.148965833334703 14.9936792074054 0.163750706372346 14.6502087589982 
! Port Impedance47.2844441698743 0.371745563011705 100.11343308422  0.681561525220604 

0.42             0.258566742050917 -87.2649138564276 0.946842409203661 -87.6161177105972 0.94684240920366 -87.6161177105973 0.257191410400796 92.8300237378134 
! Gamma         !               0.152395725640186 15.3592537912314 0.167326032864431 15.0070520229835 
! Port Impedance47.2835644391387 0.372152849963049 100.110887174397 0.683228817412315 

0.43             0.254937434058039 -89.5087222952382 0.947304881402045 -89.7350394393509 0.947304881402045 -89.735039439351 0.253535795897739 90.9024319441592 
! Gamma         !               0.155821588664241 15.7248346360994 0.170891862396546 15.3638934438963 
! Port Impedance47.2826915888268 0.372549579505252 100.108395729807 0.684854088753169 

0.44             0.25125636954595 -91.7660562931055 0.947763759065924 -91.8557138271194 0.947763759065924 -91.8557138271195 0.24983500254513 88.9874032851488 
! Gamma         !               0.159243588588755 16.0904221699685 0.174448605517051 15.7207336164555 
! Port Impedance47.2818249442955 0.372936284590625 100.105956027002 0.686438574095346 

0.45             0.247525877866585 -94.0374218829431 0.948217863840076 -93.9781212932196 0.948217863840076 -93.9781212932197 0.24609180205998 87.0855464612348 
! Gamma         !               0.162661892241694 16.4560168009562 0.177996664159179 16.0775730910738 
! Port Impedance47.2809638476922 0.373313441391559 100.103565394384 0.687983462712736 

0.46             0.243748369178868 -96.3233451232254 0.948666036878607 -96.1022390044569 0.948666036878607 -96.1022390044569 0.242309040632986 85.197497105543  
! Gamma         !               0.166076666218466 16.8216189193997 0.18153642994412 16.4344123782743 
! Port Impedance47.2801076602144 0.373681476837396 100.101221222195 0.689489906596162 

0.47             0.239926335051281 -98.6243736532391 0.949107142163375 -98.228040957599 0.949107142163375 -98.2280409575991 0.238489638995959 83.3239189095566 
! Gamma         !               0.1694880760492  17.1872288996629 0.185068282864485 16.7912519526145 
! Port Impedance47.2792557638103 0.374040775363292 100.098920970584 0.690959026166792 

0.48             0.236062348826267 -100.941078358293 0.949540069701867 -100.355498070435 0.949540069701867 -100.355498070435 0.234636592285321 81.4655047349915 
! Gamma         !               0.172896285425876 17.5528471017263 0.188592590292017 17.1480922561775 
! Port Impedance47.2784075624017 0.374391684903008 100.09666217595  0.69239191409511 

0.49             0.232159065745545 -103.274055147958 0.949963738599269 -102.484578281288 0.949963738599268 -102.484578281288 0.230752969679301 79.6229777036568 
! Gamma         !               0.176301455499299 17.9184738725894 0.192109706260908 17.5049337016834 
! Port Impedance47.2775624827025 0.374734522167692 100.094442455752 0.693789637749835 

0.5              0.228219222837581 -105.62392685021 0.950377099999536 -104.615246656802 0.950377099999536 -104.615246656802 0.22684191378755 77.7970922556287 
! Gamma         !               0.179703744252433 18.2841095475126 0.195619970984534 17.8617766752689 
! Port Impedance47.2767199746973 0.375069577259719 100.092259511986 0.695153240672449 

0.51             0.224245638570551 -107.991345224041 0.95077913989026 -106.747465507816 0.950779139890259 -106.747465507816 0.222906639773049 75.9886351643324 
! Gamma         !               0.183103305953473 18.6497544511217 0.199123710569033 18.2186215389764 
! Port Impedance47.275879511837  0.375397117674711 100.090111133482 0.696483743376889 

0.52             0.220241212275919 -110.376993092601 0.951168881765969 -108.881194513047 0.951168881765969 -108.881194513047 0.218950434187291 74.1984264950847 
! Gamma         !               0.186500290689551 19.015408898392  0.202621236892063 18.5754686329881 
! Port Impedance47.2750405910002 0.375717391746905 100.087995197189 0.697782143696071 

0.53             0.216208923349568 -112.781586598267 0.951545389144389 -111.016390850325 0.951545389144389 -111.016390850325 0.214976653500816 72.4273204912701 
! Gamma         !               0.189894843979808 19.381073195532  0.206112847619267 18.9323182776389 
! Port Impedance47.2742027322643 0.376030631592901 100.085909668578 0.699049416839897 

0.54             0.212151830238877 -115.205877580085 0.951907767930032 -113.153009335037 0.951907767930032 -113.153009335037 0.210988722312141 70.676206369543  
! Gamma         !               0.193287106464971 19.7467476407769 0.209598826334723 19.2891707752327 
! Port Impedance47.2733654785225 0.376337055607727 100.083852601324 0.700286515284886 

0.55             0.208073069225594 -117.650656072779 0.952255168619391 -115.291002565418 0.952255168619391 -115.291002565418 0.20699013121902 68.946009002233  
! Gamma         !               0.196677213669307 20.1124325251065 0.213079442764803 19.6460264116869 
! Port Impedance47.2725283949796 0.376636870564589 100.08182213634  0.70149436858084 

0.56             0.203975853015432 -120.116752924902 0.952586788341988 -117.430321074281 0.952586788341988 -117.430321074281 0.202984434336561 67.2376894614274 
! Gamma         !               0.200065295829947 20.4781281328944 0.216554953077703 20.0028854580254 
! Port Impedance47.2716910685527 0.376930273366847 100.07981650032  0.702673883135113 

0.57             0.199863469146293 -122.605042531606 0.952901872731537 -119.570913486747 0.952901872731537 -119.570913486747 0.198975246447118 65.5522453949651 
! Gamma         !               0.203451477787976 20.8438347424989 0.220025600243344 20.3597481717359 
! Port Impedance47.2708531072006 0.377217452497009 100.077834003844 0.703825942015686 

0.58             0.195739278227595 -125.116445674841 0.953199717621652 -121.712726683483 0.953199717621653 -121.712726683483 0.194966239766844 63.8907111997588 
! Gamma         !               0.206835878935366 21.2095526268021 0.223491614440451 20.7166147980072 
! Port Impedance47.270014139201  0.3774985892041  100.075873039153 0.704951404799087 

0.59             0.191606712023524 -127.651932460465 0.953479670560713 -123.855705968935 0.953479670560713 -123.855705968935 0.190961140313396 62.2541579524262 
! Gamma         !               0.210218613211694 21.5752820537011 0.226953213499513 21.0734855708591 
! Port Impedance47.2691738123926 0.377773858466659 100.073932077658 0.706051107479817 

0.6              0.187469271392862 -130.212525337568 0.953741132140825 -125.999795243998 0.953741132140826 -125.999795243998 0.186963723858273 60.6436930511347 
! Gamma         !               0.213599789144601 21.9410232865587 0.230410603371932 21.4303607141755 
! Port Impedance47.2683317933942 0.378043429764955 100.072009667255 0.707125862449273 

0.61             0.183330524097469 -132.799302180169 0.953983557136249 -128.144937182545 0.953983557136249 -128.144937182545 0.182977811445737 59.0604595158329 
! Gamma         !               0.216979509928159 22.3067765846166 0.2338639786171  21.7872404426495 
! Port Impedance47.2674877668141 0.378307467692441 100.070104429489 0.708176458547254 

0.62             0.179194102490335 -135.413399405095 0.95420645544714 -130.291073411187 0.95420645544714 -130.291073411186 0.179007264458009 57.5056348866736 
! Gamma         !               0.220357873533514 22.6725422033735 0.237313522900409 22.1441249626496 
! Port Impedance47.2666414344572 0.378566132432748 100.068215056634 0.709203661184726 

0.63             0.175063701092224 -138.056015092136 0.954409392845058 -132.438144691638 0.954409392845058 -132.438144691638 0.175055979203446 55.9804296524783 
! Gamma         !               0.223734972846552 23.038320394934  0.24075940949625 22.5010144730134 
! Port Impedance47.2657925145385 0.378819580125549 100.066340308706 0.710208212534979 

0.64             0.170943074063305 -140.728412063146 0.954591991517387 -134.586091105013 0.954591991517388 -134.586091105013 0.171127881000605 54.4860851326424 
! Gamma         !               0.22711089582768 23.404111408327  0.244201801791047 22.8579091657753 
! Port Impedance47.2649407409081 0.379067963141343 100.064479010466 0.711190831787179 

0.65             0.166836032572515 -143.43192086544 0.954753930408524 -136.734852237376 0.954753930408524 -136.734852237376 0.167226917726528 53.0238707270972 
! Gamma         !               0.23048572568922 23.7699154898005 0.247640853782188 23.2148092268331 
! Port Impedance47.2640858622938 0.379311430282743 100.062630048433 0.712152215456642 

0.66             0.16274644206265 -146.167942591227 0.954894945356539 -138.884367365839 0.954894945356539 -138.884367365839 0.163357052792106 51.5950804400492 
! Gamma         !               0.233859541086348 24.1357328830897 0.251076710569442 23.571714836559  
! Port Impedance47.2632276415632 0.379550126927104 100.060792367927 0.713093037745226 

0.67             0.158678219403111 -148.937951448617 0.955014829024872 -141.034575644517 0.955014829024872 -141.034575644516 0.159522257501268 50.2010285745552 
! Gamma         !               0.237232416317889 24.501563829665  0.254509508836066 23.9286261703593 
! Port Impedance47.2623658550093 0.379784195123328 100.058964970163 0.714013950945047 

0.68             0.154635329914608 -151.743496980518 0.955113430629519 -143.185416289596 0.955113430629519 -143.185416289595 0.155726502743844 48.8430444869964 
! Gamma         !               0.240604421533739 24.8674085689581 0.257939377317391 24.2855433991854 
! Port Impedance47.2615002916616 0.380013773653559 100.057146909424 0.714915585878669 

0.69             0.150621784240705 -154.586205805267 0.955190655463144 -145.336828762827 0.955190655463144 -145.336828762827 0.151973749964717 47.5224662837864 
! Gamma         !               0.243975622946018 25.2332673385692 0.261366437255114 24.6424666900024 
! Port Impedance47.2606307526234 0.380238998068739 100.055337290304 0.715798552370052 

0.7              0.146641635029623 -157.467782726527 0.955246464218473 -147.488752952702 0.955246464218473 -147.488752952702 0.148267941344356 46.2406333379379 
! Gamma         !               0.247346083041492 25.5991403744564 0.264790802835946 24.999396206215  
! Port Impedance47.2597570504367 0.380460000705611 100.053535265054 0.71666343974004 

0.71             0.1426989733759  -160.390011029798 0.955280872114356 -149.641129352619 0.955280872114357 -149.641129352619 0.14461298911855 44.9988775013644 
! Gamma         !               0.250715860793091 25.9650279111082 0.268212581613631 25.3563321080566 
! Port Impedance47.2588790084749 0.380676910691156 100.051740031014 0.717510817320931 

0.72             0.138797924955028 -163.35475174844 0.955293947828797 -151.793899235324 0.955293947828797 -151.793899235324 0.141012763958569 43.7985128911521 
! Gamma         !               0.254085011868738 26.330930181701  0.271631874913627 25.7132745529434 
! Port Impedance47.2579964603639 0.380889853939571 100.049950828158 0.718341234985702 

0.73             0.13494264576481 -166.363941643424 0.955285812244264 -153.947004822955 0.955285812244264 -153.947004822955 0.137471082327783 42.6408241358554 
! Gamma         !               0.257453588835933 26.6968474182416 0.275048778220022 26.0702236957951 
! Port Impedance47.2571092494302 0.381098953145619 100.048166936739 0.719155223686784 

0.74             0.131137317364571 -169.419589598425 0.95525663701151 -156.100389452009 0.95525663701151 -156.100389452009 0.133991692727703 41.5270529826945 
! Gamma         !               0.26082164136087 27.0627798516961 0.278463381544464 26.4271796893256 
! Port Impedance47.2562172281774 0.381304327777667 100.046387675043 0.719953296001449 

0.75             0.127386141477416 -172.523771085922 0.955206642939033 -158.2539977326  0.955206642939033 -158.2539977326  0.130578260746589 40.4583831900823 
! Gamma         !               0.264189216401061 27.4287277121073 0.281875769777072 26.7841426843068 
! Port Impedance47.2553202577885 0.381506094072582 100.044612397253 0.720735946679704 

0.76             0.123693333791364 -175.678620311887 0.955136098216197 -160.407775701378 0.955136098216197 -160.407775701378 0.127234352828252 39.4359236639808 
! Gamma         !               0.26755635839069 27.7946912286994 0.285286023019441 27.1411128298046 
! Port Impedance47.2544182076546 0.381704365034486 100.042840491418 0.721503653191753 

0.77             0.120063116762453 -178.886319598512 0.955045316478819 -162.561670967533 0.95504531647882 -162.561670967533 0.123963418688802 38.4606898429753 
! Gamma         !               0.27092310941809 28.1606706299726 0.288694216899998 27.4980902733925 
! Port Impedance47.2535109549294 0.381899250438494 100.041071377525 0.722256876272821 

0.78             0.116499711187435 177.850914480897 0.954934654726813 -164.715632851319 0.954934654726814 -164.715632851319 0.120768772326391 37.5335833972687 
! Gamma         !               0.274289509394932 28.526666143787  0.292100422872053 27.8550751613428 
! Port Impedance47.252598384107  0.382090856840394 100.039304505678 0.722996060463055 

0.79             0.113007326276037 174.530848738867 0.954804511104155 -166.869612514583 0.954804511104155 -166.869612514583 0.11765357159475 36.6553703822443 
! Gamma         !               0.277655596216823 28.8926779974383 0.295504708494982 28.2120676387964 
! Port Impedance47.2516803866234 0.382279287592724 100.037539354374 0.723721634640428 

0.8              0.109590147914621 171.151255331654 0.954655322552073 -169.023563082828 0.954655322552073 -169.023563082828 0.11462079634716 35.8266580783374 
! Gamma         !               0.281021405915198 29.2587064177241 0.298907137699051 28.5690678499153 
! Port Impedance47.2507568604807 0.38246464286753 100.035775428876 0.724434012545495 

0.81             0.106252324776288 167.709938591656 0.954487562346909 -171.177439758357 0.954487562346909 -171.177439758357 0.111673225204531 35.0478708552027 
! Gamma         !               0.28438697280043 29.6247516310028 0.302307771034415 28.9260759380168 
! Port Impedance47.2498277098925 0.382647019685733 100.034012259684 0.725133593296097 

0.82             0.102997951900375 164.2047672619   0.954301737534567 -173.331199924113 0.954301737534567 -173.331199924113 0.108813411060329 34.3192255176391 
! Gamma         !               0.287752329596235 29.9908138632448 0.305706665904911 29.2830920456926 
! Port Impedance47.248892844949  0.382826511953065 100.032249401087 0.725820761891906 
