! Touchstone file from project TaperedLine_and_RadialStub
! Exported from HFSS 2018.0.0
! Variables:
!  $h = 62mil
!  $t = 0.7mil
!  h = 62mil
!  lam = 65.346mm
!  t = 0.7mil
!  w = 2.99067mm
!  w1 = 2.47403mm
!  w2 = 1.86975mm
!  w3 = 1.29407mm
!  w4 = 0.902071mm
!  w5 = 0.6694mm
!Data is not renormalized
# GHZ S MA
! Modal data exported
! Port[1] = 1:1
! Port[2] = 2:1
0                0.510225010199678 -0               0.850093974239211 -0               0.850093974239376 -0               0.50961734080335 -180             
! Gamma         !               0.00492760241599986 0                0.00539729362168242 0                
! Port Impedance84.5821524910862 0                409.095402260045 0                

0.01             0.331935885619515 -4.06002198677705 0.942257293944198 -1.90254919028685 0.942257293944198 -1.90254919028685 0.332557393750654 176.607310761139 
! Gamma         !               0.0100905588001277 0.367411652567368 0.0174820223571131 0.362928446400851 
! Port Impedance47.4358538821652 -0.142551839372257 103.142293237395 -1.2217719885134 

0.02             0.328602984535146 -5.91851505320045 0.942976963140989 -4.07363871111809 0.942976963140989 -4.07363871111809 0.329558965623306 175.309832501954 
! Gamma         !               0.0138236526067363 0.733032007510824 0.0234212039262831 0.719771085649546 
! Port Impedance47.4224220848249 0.131952577651446 103.108423579688 -0.185161629865014 

0.03             0.327162310379065 -8.02344347741102 0.943070765632371 -6.21333277353756 0.943070765632371 -6.21333277353755 0.328266632634952 173.767400399325 
! Gamma         !               0.0173038869172118 1.09888725359674 0.0277566534471965 1.07668950212237 
! Port Impedance47.4190497624659 0.220386858421314 103.099206111501 0.152712277779504 

0.04             0.326270050176873 -10.2442547116397 0.942997945348758 -8.33764402401252 0.942997945348759 -8.33764402401251 0.327464390610844 172.114507001803 
! Gamma         !               0.0206296575552664 1.46482049196643 0.0314967535335426 1.43389876711256 
! Port Impedance47.4177342487055 0.267195477627324 103.095470431357 0.325085934320461 

0.05             0.325526679524932 -12.5279417439365 0.942861558999413 -10.45530987217  0.942861558999415 -10.45530987217  0.326788995643454 170.403535170615 
! Gamma         !               0.024043165290459 1.83078355882977 0.0352130042862961 1.79128146328142 
! Port Impedance47.4166249202571 0.292864754671176 103.09196181188  0.422891555180465 

0.06             0.324800045790403 -14.8479959131647 0.942701632596211 -12.5697898902189 0.942701632596213 -12.5697898902188 0.326120158517899 168.659834375915 
! Gamma         !               0.0276153431208585 2.19675164106074 0.0390725490533768 2.14874325133719 
! Port Impedance47.4155318634002 0.307784374994494 103.088271203842 0.482987205676389 

0.07             0.324041243159493 -17.1902253798668 0.942542280933298 -14.6823771003828 0.9425422809333  -14.6823771003828 0.325412885444805 166.896603046702 
! Gamma         !               0.0312955164134806 2.56271211492514 0.0430547871206702 2.50622849631978 
! Port Impedance47.4144933328962 0.317680165273049 103.084674860215 0.52375203969702 

0.08             0.323231100455516 -19.5462638632719 0.942401573713597 -16.7933319866551 0.942401573713599 -16.7933319866551 0.324649426555772 165.121349406306 
! Gamma         !               0.0349589310833926 2.9286590321933  0.0470446300787852 2.86370448958792 
! Port Impedance47.4135428920137 0.325589659510984 103.081373682932 0.554782128111585 

0.09             0.322362270298367 -21.9106640326925 0.942293951749884 -18.9023492043213 0.942293951749885 -18.9023492043212 0.323823336523487 163.338740414182 
! Gamma         !               0.0384307155291729 3.29459034652578 0.0508696091798658 3.22115138825639 
! Port Impedance47.412687756198  0.333057508943797 103.078436772571 0.581145180878527 

0.1              0.321432395881356 -24.2795448609928 0.942230856227356 -21.0087877962093 0.942230856227356 -21.0087877962093 0.322933378448703 161.551933479288 
! Gamma         !               0.041497207778003 3.66050633247017 0.0543154910877159 3.57855675805456 
! Port Impedance47.4119195427975 0.340831020629362 103.075855112095 0.605524616529203 

0.11             0.320442113174219 -26.703880316316 0.942299718598607 -23.1122479186475 0.942299718598607 -23.1122479186475 0.321908813473183 159.721026153638 
! Gamma         !               0.0438997515966818 4.02622334253951 0.0571245708586045 3.93539638858657 
! Port Impedance47.4203551264492 0.339373619995966 103.089315726585 0.612386524373093 

0.12             0.31936469289109 -29.1273814782058 0.942375145095564 -25.2164269105953 0.942375145095564 -25.2164269105953 0.320796197597428 157.89378055179  
! Gamma         !               0.0464746579815947 4.39194751765918 0.0601276367938427 4.29226895362244 
! Port Impedance47.4260238802454 0.338649077556889 103.098013949685 0.618809768488854 

0.13             0.318201913110375 -31.5500589385274 0.942457127312962 -27.321381808186 0.942457127312963 -27.321381808186 0.319597802418199 156.070399406403 
! Gamma         !               0.049209478650433 4.75767336191455 0.0633095883862346 4.64915680875061 
! Port Impedance47.4296025578402 0.338564758199341 103.102988748502 0.625009810061451 

0.14             0.316955634820152 -33.9719433123805 0.942545651949042 -29.4271675771342 0.942545651949042 -29.4271675771342 0.3183159696571  154.251057531182 
! Gamma         !               0.0520915802651085 5.12339697802471 0.0666550132334847 5.00604718467611 
! Port Impedance47.4315934538533 0.339007007990661 103.105063184882 0.631073320325525 

0.15             0.315627787248667 -36.3930859382184 0.942640699865391 -31.533836980326 0.942640699865391 -31.533836980326 0.316953087039996 152.435901742592 
! Gamma         !               0.0551083137070058 5.48911558333564 0.0701484624561388 5.36293067004343 
! Port Impedance47.432374294692  0.339863785311373 103.104888584013 0.63702025065109 

0.16             0.31422035315743 -38.8135593885511 0.942742245110601 -33.6414404544437 0.942742245110602 -33.6414404544437 0.315511564832485 150.625051187741 
! Gamma         !               0.0582471621606574 5.85482720270791 0.073774671885609 5.71980025540126 
! Port Impedance47.4322328420048 0.341034342057231 103.102981419489 0.642839091723038 

0.17             0.312735354280547 -41.2334577907611 0.94285025391593 -35.7500259961005 0.94285025391593 -35.7500259961005 0.313993813397904 148.818598067743 
! Gamma         !               0.0614958698522622 6.22053046505928 0.0775187428320357 6.07665070662184 
! Port Impedance47.431390929489  0.342432503771687 103.099752514951 0.648506351897088 

0.18             0.311174837084959 -43.6528969596216 0.942964683671508 -37.8596390579076 0.942964683671509 -37.8596390579076 0.312402222110016 147.01660874048  
! Gamma         !               0.0648425521979276 6.58622446303239 0.0813662894939806 6.43347813906891 
! Port Impedance47.4300213045292 0.343986876677444 103.09552964895  0.653996856371102 

0.19             0.309540859014951 -46.0720143450288 0.943085481891912 -39.9703224548536 0.943085481891913 -39.9703224548537 0.310739139913839 145.219125181859 
! Gamma         !               0.0682757878694856 6.95190865247373 0.0853035571483111 6.79027971814605 
! Port Impedance47.4282595800921 0.345639673528012 103.090574931828 0.659288775874942 

0.2              0.307835475371278 -48.4909688002361 0.943212585180092 -42.0821162813206 0.943212585180093 -42.0821162813206 0.309006857786453 143.426166780427 
! Gamma         !               0.0717846933858891 7.31758277786549 0.0893175140462592 7.14705344179583 
! Port Impedance47.4262128465408 0.347345013113411 103.085098184612 0.664365687220398 

0.21             0.306060726960695 -50.9099401774904 0.943345918198836 -44.1950578390114 0.943345918198836 -44.1950578390114 0.307207593306161 141.637732436563 
! Gamma         !               0.0753589810604738 7.68324681523396 0.0933959194965309 7.50379797763322 
! Port Impedance47.4239659803511 0.349067116812893 103.079267305047 0.669217016312067 

0.22             0.304218628636189 -53.3291287594078 0.943485392658994 -46.3091815760081 0.943485392658994 -46.3091815760081 0.305343477494381 139.853802934389 
! Gamma         !               0.0789890013729099 8.04890092722054 0.0975273704972909 7.86051253750089 
! Port Impedance47.4215863452031 0.350778602215795 103.073216370081 0.673837650771514 

0.23             0.302311158832034 -55.7487545357055 0.943630906333751 -48.4245190371263 0.943630906333752 -48.4245190371263 0.303416544050801 138.074343552037 
! Gamma         !               0.0826657710400042 8.41454542690298 0.101701329274834 8.21719677835999 
! Port Impedance47.4191273548024 0.352458958349819 103.067052031086 0.678227175287025 

0.24             0.300340250181358 -58.169056336006 0.943782342108143 -50.5410988256729 0.943782342108143 -50.5410988256729 0.301428721059721 136.299306873943 
! Gamma         !               0.0863809882106722 8.78018074812719 0.105908134097679 8.57385072223586 
! Port Impedance47.4166312169934 0.354093228067359 103.06085861076  0.682388984582446 

0.25             0.29830778128748 -60.5902908303854 0.943939567072943 -52.6589465766613 0.943939567072944 -52.6589465766613 0.299381825204375 134.528635767317 
! Gamma         !               0.0901270363016381 9.14580742084298 0.110138995716474 8.93047469034608 
! Port Impedance47.4141310791006 0.35567089394371 103.054702202133 0.686329411487124 

0.26             0.296215569704128 -63.0127314101426 0.944102431671847 -54.7780849414767 0.944102431671848 -54.7780849414767 0.297277558487156 132.762266483879 
! Gamma         !               0.0938969780242381 9.51142605040417 0.114385981717137 9.28706924809018 
! Port Impedance47.4116527277619 0.357184950593691 103.048633991408 0.690056938519009 

0.27             0.29406536616399 -65.4366669619387 0.944270768910644 -56.898533583931 0.944270768910645 -56.898533583931 0.295117507416995 131.000131847295 
! Gamma         !               0.0976845411360049 9.8770373000947  0.118641990966533 9.64363515859108 
! Port Impedance47.4092159515467 0.358631141148144 103.042692969812 0.693581521369411 

0.28             0.291858850080026 -67.8624005490267 0.944444393636767 -59.0203091875886 0.944444393636768 -59.0203091875886 0.292903144591119 129.242164486396 
! Gamma         !               0.101484097392494 10.2426418763384 0.122900720183487 10.0001733431478 
! Port Impedance47.4068356440453 0.360007334741328 103.036908158916 0.696914030136824 

0.29             0.289597626329705 -70.2902480137505 0.94462310189724 -61.1434254741876 0.944623101897241 -61.1434254741876 0.290635832566784 127.488300074322 
! Gamma         !               0.105290636084587 10.6082405161813 0.127156624492789 10.3566848474034 
! Port Impedance47.4045227040744 0.361313023081055 103.031300444459 0.700065802111177 

0.3              0.287283223318848 -72.7205365158848 0.944806670382603 -63.2678932329286 0.944806670382604 -63.2678932329286 0.288316829889621 125.738480533983 
! Gamma         !               0.109099733433591 10.9738339767221 0.131404873626402 10.7131708123337 
! Port Impedance47.4022847750021 0.362548916337344 103.025884092265 0.703048294107312 

0.31             0.28491709230918 -75.1536030217098 0.944994855963933 -65.3937203603462 0.944994855963934 -65.3937203603463 0.285947299118607 123.992657170866 
! Gamma         !               0.112907518989145 11.3394230262287 0.135641305234154 11.0696324493652 
! Port Impedance47.4001268548817 0.363716621066459 103.020668003987 0.70587282018976 

0.32             0.282500607981846 -77.5897927589852 0.945187395329491 -67.5209119104301 0.945187395329492 -67.5209119104302 0.283528316663534 122.250793695068 
! Gamma         !               0.116710640040597 11.7050084367189 0.139862376563816 11.4260710190731 
! Port Impedance47.3980518017104 0.364818385358545 103.015656758602 0.70855036053162 

0.33             0.280035070198159 -80.0294576532266 0.945384004726982 -69.6494701546088 0.945384004726983 -69.6494701546089 0.281060884229028 120.512869095637 
! Gamma         !               0.120506224916879 12.0705909778194 0.144065115574574 11.7824878130084 
! Port Impedance47.3960607527743 0.365856898696602 103.010851476567 0.711091428141692 

0.34             0.27752170690856 -82.4729547608887 0.945584379816717 -71.7793946511648 0.945584379816719 -71.7793946511649 0.278545941639708 118.778880331737 
! Gamma         !               0.124291845917884 12.4361714117355 0.148247072363166 12.1388841382736 
! Port Impedance47.3941534730909 0.366835136071909 103.006250536624 0.713505981694522 

0.35             0.274961678151162 -84.9206447152403 0.945788195640322 -73.9106823236019 0.945788195640323 -73.910682323602 0.275984380804027 117.048844807013 
! Gamma         !               0.128065482495148 12.80175048919   0.15240627161208 12.4952613045218 
! Port Impedance47.3923286449925 0.367756237695669 103.001850169836 0.715803374365407 

0.36             0.272356081072214 -87.3728902008695 0.945995106708859 -76.0433275474441 0.94599510670886 -76.0433275474442 0.273377060559848 115.322802595659 
! Gamma         !               0.131825485183876 13.1673289462004 0.156541166616   12.8516206130891 
! Port Impedance47.3905841086262 0.368623417184844 102.997644951091 0.717992330213171 

0.37             0.269705955892361 -89.8300544728894 0.946204747213505 -78.1773222449057 0.946204747213506 -78.1773222449058 0.270724822133038 113.600818391291 
! Gamma         !               0.135570540683375 13.5329075015802 0.160650595307325 13.2079633480086 
! Port Impedance47.388917061388  0.369439892401502 102.993628204905 0.720080941165588 

0.38             0.267012292734575 -92.2924999370056 0.946416731361112 -80.3126559868362 0.946416731361113 -80.3126559868363 0.268028504931646 111.88298315265  
! Gamma         !               0.139299638389591 13.8984868550631 0.164733738584025 13.5642907686753 
! Port Impedance47.3873242229169 0.370208834214785 102.989792339513 0.722076678999551 

0.39             0.264276039222079 -94.7605868066658 0.946630653836143 -82.4493161013088 0.946630653836144 -82.4493161013089 0.26528896239281 110.169415423613 
! Gamma         !               0.143012038601812 14.2640676859575 0.168790081142808 13.9206041039579 
! Port Impedance47.3858019711634 0.370933329359838 102.986129120942 0.723986417856871 

0.4              0.261498108747513 -97.2346718535012 0.946846090389665 -84.5872877881954 0.946846090389666 -84.5872877881955 0.262507077597838 108.460262308825 
! Gamma         !               0.14670724255543 14.6296506522509 0.17281937493652 14.2769045475712 
! Port Impedance47.3843464541484 0.371616354314747 102.982629896874 0.725816463802746 

0.41             0.258679389307942 -99.7151072671989 0.947062598555212 -86.7265542390403 0.947062598555213 -86.7265542390403 0.259683778373278 106.75570009056  
! Gamma         !               0.150384964373352 14.9952363900938 0.176821605305533 14.6331932545428 
! Port Impedance47.3829536812845 0.372260757728765 102.979285778509 0.727572588732163 

0.42             0.255820752794214 -102.202239640769 0.947279718490461 -88.8670967615275 0.947279718490463 -88.8670967615276 0.256820051602545 105.055934477194 
! Gamma         !               0.15404510497938 15.3608255135972 0.180796959777125 14.9894713386239 
! Port Impedance47.3816195975283 0.372869249434553 102.976087787351 0.729260066579846 

0.43             0.252923064617619 -104.696409096893 0.947496973942851 -91.0088949078155 0.947496973942852 -91.0088949078156 0.253916956484157 103.361200478769 
! Gamma         !               0.157687727976714 15.7264186148913 0.184745799482861 15.3457398705088 
! Port Impedance47.3803401431181 0.373444394482456 102.973026972702 0.730883710312174 

0.44             0.249987193552029 -107.19794857061 0.947713873336345 -93.1519266059991 0.947713873336346 -93.1519266059992 0.250975636489018 101.671761910663 
! Gamma         !               0.161313037462685 16.0920162643957 0.188668633110348 15.7019998767432 
! Port Impedance47.37911130123   0.373988610962466 102.970094504768 0.732447908594867 

0.45             0.247014021665692 -109.707183263038 0.947929910975787 -95.2961682939492 0.947929910975788 -95.2961682939493 0.24799732979058 99.9879105321286 
! Gamma         !               0.164921357725853 16.4576190112584 0.192566093280781 16.0582523392141 
! Port Impedance47.3779291355238 0.374504170643102 102.967281747468 0.733956661356371 

0.46             0.244004454213868 -112.224430280046 0.948144568364418 -97.4415950547729 0.948144568364419 -97.441595054773 0.24498337796804 98.3099648324296 
! Gamma         !               0.168513114752793 16.82322738393   0.196438915226165 16.4144981951252 
! Port Impedance47.3767898192501 0.374993201667709 102.964580314406 0.735413613719893 

0.47             0.240959429361745 -114.749998468853 0.948357315629333 -99.5881807531355 0.948357315629334 -99.5881807531356 0.241935232813788 96.6382684833711 
! Gamma         !               0.17208881945824 17.1888418908395 0.200287917628731 16.7707383373766 
! Port Impedance47.3756896573329 0.375457692717342 102.961982110904 0.736822087970769 

0.48             0.237879927606587 -117.284188464357 0.948567613048934 -101.735898171684 0.948567613048935 -101.735898171684 0.238854461111667 94.9731884830025 
! Gamma         !               0.175649052543057 17.5544630211467 0.204113985478581 17.1269736152716 
! Port Impedance47.3746251026235 0.375899498183551 102.959479364546 0.738185113372069 

0.49             0.234766980769209 -119.82729295558 0.948774912675651 -103.884719146822 0.948774912675651 -103.884719146822 0.23574274729167 93.3151130211307 
! Gamma         !               0.1791944508788  17.9200912455498 0.20791805480326 17.4832048354903 
! Port Impedance47.3735927673405 0.376320344000556 102.957064646267 0.739505453749808 

0.5              0.231621680427736 -122.379597180993 0.948978660046548 -106.034614703081 0.948978660046549 -106.034614703081 0.232601893908683 91.6644491028009 
! Gamma         !               0.182725695314963 18.2857270171272 0.211701099123657 17.8394327632719 
! Port Impedance47.3725894305489 0.376721833870158 102.954730883718 0.74078563284795 

0.51             0.228445185671312 -124.941379659597 0.949178295973807 -108.185555185375 0.949178295973808 -108.185555185375 0.22943381993687 90.0216199709794 
! Gamma         !               0.186243499804633 18.6513707722007 0.21546411749381 18.1956581237581 
! Port Impedance47.3716120424017 0.37710545567852 102.952471368334 0.742027957508984 

0.52             0.225238730058183 -127.512913162543 0.949373258406441 -110.337510388384 0.949373258406442 -110.337510388385 0.226240556916196 88.3870623741662 
! Gamma         !               0.189748601745711 19.0170229312045 0.219208123987177 18.5518816034579 
! Port Impedance47.3706577257531 0.377472587955418 102.950279757331 0.743234538773747 

0.53             0.222003627671415 -130.094465927725 0.949562984354116 -112.49044968241 0.949562984354117 -112.49044968241 0.223024243032276 86.7612237284376 
! Gamma         !               0.193241753437764 19.3826838995529 0.2229341384982  18.9081038517967 
! Port Impedance47.3697237756549 0.377824506266618 102.948150071616 0.744407311018286 

0.54             0.218741278176463 -132.686303117268 0.949746911863446 -114.644342134979 0.949746911863446 -114.644342134979 0.219787115253976 85.144559226376  
! Gamma         !               0.196723714558449 19.7483540684948 0.226643178735125 19.2643254827217 
! Port Impedance47.3688076571648 0.378162389461013 102.946076690472 0.745548049259668 

0.55             0.215453170797841 -135.288688515114 0.949924482036729 -116.799156627568 0.94992448203673 -116.799156627568 0.216531499693839 83.5375289473755 
! Gamma         !               0.2001952455681  20.1140338159512 0.230336253287754 19.620547076338  
! Port Impedance47.3679070018297 0.378487325717976 102.944054343714 0.746658384768986 

0.56             0.212140887147179 -137.901886459091 0.950095141082755 -118.954861966806 0.950095141082755 -118.954861966806 0.213259800393312 81.9405950248623 
! Gamma         !               0.203657101956192 20.479723507329  0.234014355661735 19.9767691805547 
! Port Impedance47.3670196031424 0.378800318358598 102.942078101884 0.747739819130803 

0.57             0.20880610285178 -140.526163998868 0.950258342388999 -121.11142698955 0.950258342389   -121.11142698955 0.209974486766875 80.354218925986  
! Gamma         !               0.207110029248808 20.8454234963077 0.237678459179037 20.3329923127244 
! Port Impedance47.3661434112233 0.379102291398255 102.940143364997 0.748793736885318 

0.58             0.205450587951193 -143.161793268233 0.950413548604358 -123.268820661266 0.950413548604359 -123.268820661266 0.20667807996576 78.7788588983007 
! Gamma         !               0.210554758701751 21.2111341255962 0.241329512652152 20.6892169612617 
! Port Impedance47.3652765269354 0.379394094828285 102.938245850212 0.749821416883946 

0.59             0.202076206048946 -145.809054057112 0.950560233721388 -125.427012167173 0.950560233721388 -125.427012167173 0.203373138442184 77.214967635867  
! Gamma         !               0.213992003609517 21.5768557276578 0.244968436747267 21.0454435872301 
! Port Impedance47.364417195604  0.379676509622198 102.936381578771 0.750824042481707 

0.6              0.19868491222711 -148.468236565751 0.950697885146957 -127.585970995638 0.950697885146958 -127.585970995638 0.200062243008622 75.6629902140931 
! Gamma         !               0.217422456165717 21.9425886254012 0.248596120959004 21.4016726258877 
! Port Impedance47.3635638004826 0.379950252467473 102.934546862471 0.751802710681514 

0.61             0.195278749752278 -151.139644320661 0.950826005750221 -129.745667013355 0.950826005750221 -129.745667013355 0.196747981693299 74.1233623385302 
! Gamma         !               0.220846784815877 22.3083331328394 0.252213421126369 21.7579044881864 
! Port Impedance47.3627148560808 0.380215980227925 102.932738289894 0.752758440336683 

0.62             0.191859845622444 -153.8235972291  0.950944115876867 -131.906070531876 0.950944115876867 -131.906070531876 0.193432934692834 72.5965089478008 
! Gamma         !               0.224265632048528 22.6740895557128 0.255821157426087 22.1141395622177 
! Port Impedance47.3618690014468 0.380474294144453 102.930952712563 0.753692179509045 

0.63             0.188430405024623 -156.520434746364 0.951051755318724 -134.067152365083 0.951051755318724 -134.067152365083 0.190119659716019 71.0828432049238 
! Gamma         !               0.227679612575327 23.0398581920796 0.259420112785712 22.4703782146029 
! Port Impedance47.3610249934818 0.380725743783805 102.929187231183 0.754604812071366 

0.64             0.18499270479232 -159.230519127739 0.951148485228015 -136.228883877254 0.951148485228015 -136.228883877254 0.186810677999531 69.5827659045703 
! Gamma         !               0.231089311855435 23.4056393328736 0.263011031664595 22.8266207918248 
! Port Impedance47.360181700345  0.38097083074616 102.927439182067 0.755497163634358 

0.65             0.181549085969734 -161.95423873484 0.951233889965772 -138.391237021401 0.951233889965772 -138.391237021401 0.183508461257402 68.0966653162892 
! Gamma         !               0.234495284923615 23.771433262428  0.266594619156059 23.1828676214995 
! Port Impedance47.3593380949961 0.381210012142976 102.925706123847 0.756370006870632 

0.66             0.17810194560531 -164.692011364157 0.951307578874267 -140.55418436759 0.951307578874267 -140.55418436759 0.180215419802057 66.6249174755364 
! Gamma         !               0.237898055485416 24.1372402589699 0.27017154036903 23.5391190135876 
! Port Impedance47.3584932489129 0.381443703856803 102.923985824532 0.757224066300594 

0.67             0.17465372791057 -167.444287563969 0.951369187963659 -142.717699121016 0.951369187963659 -142.717699121016 0.176933892046327 65.1678869254583 
! Gamma         !               0.24129811524646 24.5030605950831 0.273742420051765 23.8953752615449 
! Port Impedance47.3576463260104 0.381672283594759 102.922276248971 0.758060022598415 

0.68             0.171206914930709 -170.211553904316 0.951418381503478 -144.881755129627 0.951418381503478 -144.881755129627 0.173666135563782 63.7259279028518 
! Gamma         !               0.244695923446164 24.8688945381424 0.277307842424392 24.2516366434143 
! Port Impedance47.3567965767821 0.381896093747152 102.920575546757 0.758878516469983 

0.69             0.167764016880933 -172.994336163479 0.951454853510047 -147.046326881136 0.951454853510047 -147.046326881136 0.170414319849711 62.2993859515668 
! Gamma         !               0.248091906569324 25.2347423507207 0.280868351190667 24.6079034228585 
! Port Impedance47.3559433326759 0.382115444062407 102.918882040599 0.759680152149061 

0.7              0.164327562306785 -175.793202393311 0.951478329121443 -149.211389489318 0.951478329121443 -149.211389489318 0.167180520887712 60.8885999358621 
! Gamma         !               0.251486458211763 25.6006042909687 0.284424449702653 24.9641758501351 
! Port Impedance47.3550860007154 0.38233061414902 102.917194215182 0.760465500552767 

0.71             0.160900088227672 -178.608765824717 0.951488565852146 -151.3769186695  0.951488565852146 -151.3769186695  0.163966717587721 59.4939044148867 
! Gamma         !               0.254879939078827 25.9664806129707 0.287976601255071 25.320454163018  
! Port Impedance47.3542240583697 0.38254185581478 102.915510706519 0.761235102132836 

0.72             0.157484130420396 178.55831242642  0.951485354720117 -153.54289070322 0.951485354720117 -153.54289070322 0.16077479012085 58.1156323276024 
! Gamma         !               0.258272677097808 26.3323715670754 0.291525229488763 25.6767385876637 
! Port Impedance47.3533570486734 0.382749395253013 102.913830291805 0.76198946945503 

0.73             0.154082213993906 175.707320893646 0.951468521239672 -155.70928239207 0.951468521239672 -155.70928239207 0.157606520135025 56.7541179251653 
! Gamma         !               0.261664967627491 26.6982774002057 0.295070718885151 26.0330293394272 
! Port Impedance47.3524845755953 0.382953435085069 102.912151879766 0.762729089535368 

0.74             0.150696844397783 172.837495576717 0.951437926274138 -157.876071000755 0.951437926274138 -157.876071000755 0.154463592793408 55.4096998751871 
! Gamma         !               0.26505707374993 27.0641983561463 0.298613415335771 26.3893266236283 
! Port Impedance47.3516062996529 0.383154156267762 102.910474501498 0.763454425958573 

0.75             0.147330498995462 169.948018084276 0.951393466742978 -160.043234189482 0.951393466742978 -160.043234189482 0.151347600535339 54.0827244496226 
! Gamma         !               0.268449226631241 27.4301346758117 0.302153626772902 26.7456306362716 
! Port Impedance47.3507219337659 0.383351719873987 102.90879730179  0.7641659208012  

0.76             0.143985619319148 167.038014147849 0.951335076178723 -162.210749935788 0.951335076178723 -162.210749935788 0.148260048417283 52.7735486955771 
! Gamma         !               0.271841625939789 27.7960865974959 0.305691623849078 27.1019415647205 
! Port Impedance47.3498312393447 0.383546268754231 102.907119530916 0.764863996379398 

0.77             0.140664604107101 164.106552554896 0.951262725129779 -164.378596446009 0.951262725129779 -164.378596446009 0.145202360849603 51.4825434765335 
! Gamma         !               0.275234440311491 28.1620543571041 0.309227640654804 27.4582595883301 
! Port Impedance47.348934022603  0.383737929086262 102.905440536883 0.76554905683891 

0.78             0.137369803205873 161.152644551591 0.951176421405856 -166.546752056582 0.951176421405856 -166.546752056582 0.142175889504289 50.2100962608861 
! Gamma         !               0.278627807853227 28.5280381883681 0.312761875465221 27.8145848790385 
! Port Impedance47.3480301310899 0.38392681181981 102.903759758115 0.766221489602983 

0.79             0.134103512400475 158.175243769564 0.951076210163512 -168.715195125449 0.951076210163512 -168.715195125449 0.13918192213015 48.9566135259379 
! Gamma         !               0.282021836676454 28.8940383230463 0.316294491507655 28.1709176019212 
! Port Impedance47.3471194504302 0.384113014022674 102.902076716574 0.766881666692041 

0.8              0.130867969214693 155.173246735173 0.950962173830001 -170.883903913863 0.950962173830001 -170.883903913863 0.136221691976196 47.7225226394467 
! Gamma         !               0.285416605454101 29.2600549911099 0.319825617743114 28.5272579157082 
! Port Impedance47.3462019012649 0.384296620134275 102.900391011272 0.767529945927451 

0.81             0.127665349702253 152.145494024994 0.950834431864338 -173.052856458925 0.950834431864338 -173.052856458925 0.13329638749271 46.5082730783063 
! Gamma         !               0.288812163994745 29.6260884209145 0.323355349655749 28.8836059732684 
! Port Impedance47.3452774363828 0.384477703132311 102.898702312192 0.768166672030347 

0.82             0.124497766227437 149.090772137192 0.950693140355219 -175.22203043724 0.950693140355219 -175.22203043724 0.130407161954233 45.3143368459789 
! Gamma         !               0.292208533828814 29.9921388393605 0.326883750045151 29.2399619220606 
! Port Impedance47.3443460380342 0.384656325617854 102.897010354563 0.768792177625263 
