! Touchstone file from project Lab 3
! Exported from HFSS 2017.1.0
! Variables:
!  $thru = 40mm
!  h = 62mil
!  line = 28.44mm
!  port_h = 496mil
!  port_w = 24.13968mm
!  sub_w = 30.1746mm
!  subx = 15mm
!  suby = 15mm
!  subz = 62mil
!  width = 3.01746mm
!Data is not renormalized
# GHZ S MA
! Modal data exported
! Port[1] = 1:1
! Port[2] = 2:1
2                0.0432892718310143 167.361911575206 0.97209027495416 -126.921429663504 0.97209027495416 -126.921429663504 0.0400825855805744 129.897985146045 
! Gamma         !               0.701015758620409 76.6489313651967 0.703203122624229 76.7580467197959 
! Port Impedance51.1011717944768 0.462371694072636 51.390183676719  0.465016940496842 

2.001            0.0433056523104113 167.309507756003 0.972078802546545 -126.985096108184 0.972078802546545 -126.985096108184 0.0400977483443495 129.825918860316 
! Gamma         !               0.701375305140225 76.6877100805569 0.703563920342243 76.7968848598685 
! Port Impedance51.100990456087  0.462388845344358 51.3900001961242 0.465034366076445 

2.002            0.0433220059046423 167.257080354409 0.972067334413451 -127.048763098048 0.972067334413451 -127.048763098048 0.0401128900662417 129.753826985379 
! Gamma         !               0.701734900366128 76.7264893619589 0.703924766976674 76.8357235711039 
! Port Impedance51.1008092666799 0.462405906211222 51.3898168675465 0.465051699082091 

2.003            0.0433383325546429 167.20462942105  0.972055870558067 -127.112430633692 0.972055870558067 -127.112430633692 0.0401280107009847 129.681709549294 
! Gamma         !               0.702094544208986 76.7652692094208 0.704285662438102 76.8745628535198 
! Port Impedance51.1006282262306 0.462422876903303 51.3896336909559 0.46506893975515 

2.004            0.0433546322014166 167.152155006627 0.972044410983566 -127.17609871571 0.972044410983566 -127.17609871571 0.0401431102033377 129.609566580163 
! Gamma         !               0.702454236579787 76.8040496229605 0.704646606637221 76.9134027071339 
! Port Impedance51.1004473347135 0.462439757650381 51.3894506663221 0.465086088336655 

2.005            0.0433709047860351 167.099657161914 0.972032955693103 -127.239767344696 0.972032955693103 -127.239767344696 0.0401581885280858 129.537398106127 
! Gamma         !               0.702813977389634 76.8428306025957 0.705007599484846 76.952243131964  
! Port Impedance51.1002665921033 0.462456548681934 51.3892677936144 0.465103145067305 

2.006            0.0433871502496393 167.047135937756 0.972021504689816 -127.303436521245 0.972021504689816 -127.303436521245 0.0401732456300401 129.465204155369 
! Gamma         !               0.703173766549744 76.8816121483439 0.705368640891906 76.9910841280273 
! Port Impedance51.1000859983738 0.462473250227141 51.389085072802  0.465120110187461 

2.007            0.0434033685334396 166.994591385074 0.972010057976831 -127.36710624595 0.972010057976831 -127.36710624595 0.0401882814640383 129.392984756115 
! Gamma         !               0.703533603971454 76.9203942602226 0.705729730769446 77.029925695341  
! Port Impedance51.0999055534989 0.462489862514885 51.3889025038535 0.465136983937153 

2.008            0.0434195595787167 166.942023554862 0.971998615557251 -127.430776519405 0.971998615557251 -127.430776519405 0.0402032959849448 129.320739936629 
! Gamma         !               0.703893489566216 76.9591769382489 0.706090869028629 77.0687678339222 
! Port Impedance51.0997252574521 0.462506385773746 51.3887200867373 0.465153766556072 

2.009            0.0434357233268223 166.889432498184 0.971987177434167 -127.494447342204 0.971987177434167 -127.494447342204 0.0402182891476514 129.248469725218 
! Gamma         !               0.704253423245597 76.9979601824399 0.706452055580735 77.1076105437879 
! Port Impedance51.0995451102066 0.462522820232006 51.3885378214216 0.465170458283575 

2.01             0.0434518597191792 166.83681826618  0.971975743610652 -127.55811871494 0.971975743610652 -127.55811871494 0.0402332609070772 129.176174150228 
! Gamma         !               0.704613404921282 77.0367439928124 0.706813290337161 77.1464538249546 
! Port Impedance51.0993651117353 0.462539166117648 51.3883557078742 0.465187059358682 

2.011            0.0434679686972827 166.78418091006  0.971964314089762 -127.621790638206 0.971964314089762 -127.621790638206 0.0402482112181696 129.103853240047 
! Gamma         !               0.704973434505073 77.0755283693833 0.707174573209418 77.1852976774391 
! Port Impedance51.0991852620108 0.462555423658353 51.3881737460626 0.465203570020078 

2.012            0.0434840502027006 166.731520481108 0.971952888874537 -127.685463112594 0.971952888874537 -127.685463112594 0.0402631400359039 129.031507023104 
! Gamma         !               0.705333511908884 77.1143133121691 0.707535904109138 77.2241421012575 
! Port Impedance51.0990055610056 0.462571593081503 51.3879919359539 0.46521999050611 

2.013            0.0435001041770739 166.678837030677 0.971941467968   -127.749136138698 0.971941467968   -127.749136138698 0.0402780473152843 128.959135527868 
! Gamma         !               0.705693637044751 77.1530988211861 0.707897282948065 77.2629870964261 
! Port Impedance51.0988260086917 0.462587674614181 51.3878102775151 0.465236321054793 

2.014            0.0435161305621176 166.626130610197 0.971930051373157 -127.812809717108 0.971930051373157 -127.812809717108 0.040292933011344 128.886738782848 
! Gamma         !               0.706053809824821 77.1918848964505 0.708258709638063 77.301832662961  
! Port Impedance51.0986466050408 0.462603668483167 51.3876287707129 0.465252561903801 

2.015            0.0435321292996214 166.573401271164 0.971918639093001 -127.876483848418 0.971918639093001 -127.876483848418 0.0403077970791455 128.814316816596 
! Gamma         !               0.706414030161362 77.2306715379785 0.708620184091111 77.340678800878  
! Port Impedance51.0984673500244 0.462619574914944 51.3874474155133 0.465268713290474 

2.016            0.04354810033145 166.520649065149 0.971907231130502 -127.940158533218 0.971907231130502 -127.940158533218 0.040322639473781 128.741869657701 
! Gamma         !               0.706774297966754 77.2694587457859 0.708981706219307 77.3795255101929 
! Port Impedance51.0982882436139 0.462635394135691 51.3872662118826 0.465284775451814 

2.017            0.0435640435995437 166.467874043793 0.97189582748862 -128.0038337721  0.971895827488619 -128.0038337721  0.040337460150373 128.669397334794 
! Gamma         !               0.707134613153497 77.3082465198884 0.70934327593486 77.4183727909211 
! Port Impedance51.09810928578   0.462651126371287 51.3870851597862 0.465300748624489 

2.018            0.0435799590459195 166.415076258808 0.971884428170293 -128.067509565657 0.971884428170293 -128.067509565657 0.0403522590640742 128.596899876548 
! Gamma         !               0.707494975634206 77.3470348603015 0.709704893150102 77.457220643078  
! Port Impedance51.0979304764935 0.462666771847312 51.3869042591897 0.465316633044827 

2.019            0.0435958466126712 166.362255761978 0.971873033178447 -128.131185914477 0.971873033178447 -128.131185914477 0.0403670361700685 128.524377311673 
! Gamma         !               0.707855385321609 77.3858237670408 0.710066557777479 77.4960690666787 
! Port Impedance51.0977518157248 0.462682330789041 51.3867235100582 0.46533242894882 

2.02             0.04361170624197 166.309412605156 0.971861642515988 -128.194862819152 0.971861642515988 -128.194862819152 0.0403817914235705 128.451829668921 
! Gamma         !               0.708215842128555 77.4246132401214 0.710428269729552 77.5349180617385 
! Port Impedance51.097573303444  0.462697803421452 51.3865429123563 0.465348136572124 

2.021            0.0436275378760657 166.256546840267 0.971850256185808 -128.258540280273 0.971850256185808 -128.258540280273 0.0403965247798269 128.379256977085 
! Gamma         !               0.708576345968006 77.4634032795583 0.710790028919001 77.573767628272  
! Port Impedance51.0973949396208 0.462713189969218 51.3863624660487 0.465363756150056 

2.022            0.0436433414572867 166.203658519303 0.971838874190781 -128.32221829843 0.971838874190781 -128.32221829843 0.0404112361941159 128.306659264995 
! Gamma         !               0.708936896753042 77.5021938853666 0.711151835258621 77.612617766294  
! Port Impedance51.0972167242248 0.462728490656713 51.3861821710995 0.465379287917599 

2.023            0.0436591169280407 166.150747694331 0.971827496533765 -128.385896874212 0.971827496533765 -128.385896874212 0.0404259256217481 128.234036561524 
! Gamma         !               0.709297494396858 77.5409850575608 0.711513688661325 77.651468475819  
! Port Impedance51.0970386572253 0.462743705708008 51.3860020274727 0.465394732109394 

2.024            0.0436748642308156 166.097814417484 0.971816123217601 -128.44957600821 0.971816123217601 -128.44957600821 0.0404405930180668 128.161388895583 
! Gamma         !               0.709658138812765 77.5797767961556 0.711875589040141 77.6903197568613 
! Port Impedance51.0968607385914 0.462758835346872 51.3858220351318 0.465410088959749 

2.025            0.0436905833081799 166.044858740964 0.971804754245114 -128.513255701011 0.971804754245114 -128.513255701011 0.0404552383384485 128.088716296124 
! Gamma         !               0.710018829914191 77.6185691011654 0.712237536308215 77.7291716094352 
! Port Impedance51.0966829682916 0.462773879796773 51.3856421940402 0.46542535870263 

2.026            0.0437062741027834 165.991880717047 0.971793389619112 -128.576935953207 0.971793389619112 -128.576935953207 0.0404698615383026 128.016018792138 
! Gamma         !               0.71037956761468 77.6573619726045 0.712599530378807 77.7680240335546 
! Port Impedance51.0965053462946 0.462788839280877 51.3854625041609 0.46544054157167 

2.027            0.0437219365573576 165.938880398073 0.971782029342387 -128.640616765385 0.971782029342387 -128.640616765385 0.0404844625730728 127.943296412655 
! Gamma         !               0.710740351827892 77.6961554104868 0.712961571165296 77.8068770292335 
! Port Impedance51.0963278725684 0.462803714022045 51.3852829654568 0.465455637800162 

2.028            0.0437375706147166 165.885857836454 0.971770673417715 -128.704298138134 0.971770673417715 -128.704298138134 0.0404990413982365 127.870549186745 
! Gamma         !               0.711101182467604 77.7349494148263 0.713323658581177 77.8457305964855 
! Port Impedance51.096150547081  0.462818504242839 51.3851035778902 0.465470647621059 

2.029            0.0437531762177575 165.832813084669 0.971759321847853 -128.767980072043 0.971759321847853 -128.767980072043 0.0405135979693058 127.797777143519 
! Gamma         !               0.711462059447705 77.7737439856369 0.71368579254006 77.8845847353241 
! Port Impedance51.0959733698    0.462833210165518 51.3849243414233 0.46548557126698 

2.03             0.0437687533094611 165.779746195267 0.971747974635545 -128.831662567699 0.971747974635545 -128.831662567699 0.0405281322418275 127.724980312126 
! Gamma         !               0.711822982682205 77.812539122932  0.714047972955673 77.9234394457627 
! Port Impedance51.0957963406928 0.462847832012036 51.384745256018  0.465500408970203 

2.031            0.0437843018328925 165.726657220864 0.971736631783517 -128.89534562569 0.971736631783516 -128.89534562569 0.0405426441713838 127.652158721753 
! Gamma         !               0.712183952085229 77.851334826725  0.71441019974186 77.9622947278145 
! Port Impedance51.0956194597265 0.462862370004047 51.384566321636  0.46551516096267 

2.032            0.0437998217312018 165.673546214144 0.971725293294476 -128.959029246604 0.971725293294476 -128.959029246604 0.0405571337135923 127.579312401628 
! Gamma         !               0.712544967571016 77.8901310970294 0.714772472812581 78.0011505814924 
! Port Impedance51.0954427268679 0.4628768243629  51.3843875382385 0.465529827475983 

2.033            0.0438153129476243 165.62041322786  0.971713959171117 -129.022713431028 0.971713959171117 -129.022713431028 0.0405716008241065 127.506441381018 
! Gamma         !               0.712906029053922 77.928927933858  0.715134792081913 78.0400070068095 
! Port Impedance51.0952661420836 0.462891195309643 51.3842089057865 0.465544408741407 

2.034            0.0438307754254817 165.567258314832 0.971702629416116 -129.086398179549 0.971702629416115 -129.086398179549 0.0405860454586165 127.433545689229 
! Gamma         !               0.71326713644842 77.9677253372241 0.71549715746405 78.0788640037783 
! Port Impedance51.09508970534   0.462905483065021 51.384030424241  0.465558904989868 

2.035            0.0438462091081823 165.514081527948 0.971691304032131 -129.150083492754 0.971691304032131 -129.150083492754 0.0406004675728489 127.360625355605 
! Gamma         !               0.713628289669098 78.0065233071401 0.7158595688733  78.1177215724114 
! Port Impedance51.094913416603  0.462919687849472 51.3838520935622 0.465573316451955 

2.036            0.0438616139392216 165.46088292016  0.971679983021808 -129.213769371228 0.971679983021808 -129.213769371228 0.0406148671225671 127.287680409529 
! Gamma         !               0.713989488630659 78.0453218436188 0.716222026224088 78.1565797127211 
! Port Impedance51.0947372758385 0.462933809883136 51.3836739137105 0.465587643357916 

2.037            0.0438769898621832 165.407662544492 0.971668666387773 -129.277455815559 0.971668666387773 -129.277455815559 0.0406292440635724 127.214710880425 
! Gamma         !               0.714350733247925 78.0841209466727 0.716584529430958 78.1954384247197 
! Port Impedance51.0945612830119 0.462947849385846 51.3834958846456 0.465601885937662 

2.038            0.0438923368207392 165.35442045403  0.971657354132635 -129.341142826332 0.971657354132635 -129.341142826332 0.0406435983517034 127.141716797753 
! Gamma         !               0.714712023435831 78.122920616314  0.716947078408567 78.2342977084192 
! Port Impedance51.0943854380885 0.462961806577132 51.3833180063274 0.465616044420766 

2.039            0.0439076547586507 165.301156701929 0.97164604625899 -129.404830404133 0.97164604625899 -129.404830404133 0.0406579299428373 127.068698191012 
! Gamma         !               0.715073359109429 78.1617208525549 0.71730967307169 78.2731575638315 
! Port Impedance51.0942097410334 0.462975681676222 51.3831402787151 0.46563011903646 

2.04             0.0439229436197686 165.24787134141  0.971634742769415 -129.468518549546 0.971634742769415 -129.468518549546 0.0406722387928894 126.995655089741 
! Gamma         !               0.715434740183887 78.2005216554072 0.717672313335219 78.3120179909682 
! Port Impedance51.0940341918112 0.46298947490204 51.3829627017678 0.465644110013641 

2.041            0.0439382033480342 165.19456442576  0.971623443666471 -129.532207263158 0.971623443666471 -129.532207263158 0.0406865248578142 126.922587523516 
! Gamma         !               0.715796166574489 78.2393230248829 0.71803499911416 78.350878989841  
! Port Impedance51.0938587903864 0.463003186473203 51.3827852754443 0.465658017580863 

2.042            0.0439534338874795 165.14123600833  0.971612148952701 -129.595896545552 0.971612148952701 -129.595896545552 0.0407007880936053 126.849495521952 
! Gamma         !               0.716157638196634 78.2781249609935 0.718397730323638 78.389740560461  
! Port Impedance51.0936835367233 0.463016816608029 51.3826079997033 0.465671841966345 

2.043            0.0439686351822283 165.087886142538 0.971600858630636 -129.659586397313 0.971600858630636 -129.659586397313 0.0407150284562958 126.776379114702 
! Gamma         !               0.716519154965838 78.3169274637506 0.71876050687889 78.4286027028397 
! Port Impedance51.0935084307859 0.463030365524528 51.3824308745029 0.465685583397964 

2.044            0.0439838071764964 165.034514881867 0.971589572702786 -129.723276819026 0.971589572702786 -129.723276819026 0.040729245901959 126.703238331458 
! Gamma         !               0.716880716797732 78.3557305331655 0.719123328695274 78.4674654169881 
! Port Impedance51.0933334725377 0.463043833440408 51.3822538998011 0.46569924210326 

2.045            0.0439989498145923 164.981122279866 0.971578291171647 -129.786967811274 0.971578291171646 -129.786967811274 0.0407434403867084 126.630073201947 
! Gamma         !               0.717242323608063 78.3945341692494 0.719486195688261 78.506328702917  
! Port Impedance51.0931586619423 0.463057220573073 51.3820770755558 0.465712818309433 

2.046            0.0440140630409178 164.927708390147 0.971567014039697 -129.85065937464 0.971567014039697 -129.85065937464 0.0407576118666983 126.556883755938 
! Gamma         !               0.717603975312695 78.4333383720131 0.71984910777344 78.5451925606372 
! Port Impedance51.0929839989629 0.46307052713962 51.3819004017242 0.465726312243344 

2.047            0.0440291467999689 164.874273266388 0.9715557413094  -129.914351509709 0.9715557413094  -129.914351509709 0.0407717602981242 126.483670023235 
! Gamma         !               0.717965671827605 78.4721431414677 0.720212064866516 78.5840569901592 
! Port Impedance51.0928094835624 0.463083753356846 51.3817238782637 0.465739724131516 

2.048            0.0440442010363357 164.820816962329 0.9715444729832  -129.978044217064 0.9715444729832  -129.978044217064 0.0407858856372228 126.41043203368  
! Gamma         !               0.718327413068888 78.5109484776237 0.720575066883307 78.6229219914934 
! Port Impedance51.0926351157036 0.463096899441239 51.3815475051311 0.465753054200132 

2.049            0.0440592256947038 164.767339531778 0.971533209063529 -130.041737497286 0.971533209063529 -130.041737497286 0.0407999878402727 126.337169817156 
! Gamma         !               0.718689198952756 78.5497543804916 0.720938113739753 78.66178756465   
! Port Impedance51.0924608953487 0.463109965608986 51.3813712822832 0.465766302675036 

2.05             0.0440742207198542 164.713841028602 0.971521949552798 -130.105431350958 0.971521949552798 -130.105431350958 0.0408140668635948 126.263883403578 
! Gamma         !               0.719051029395532 78.588560850082  0.721301205351903 78.7006537096392 
! Port Impedance51.0922868224602 0.463122952075968 51.3811952096762 0.465779469781732 

2.051            0.0440891860566645 164.660321506735 0.971510694453406 -130.169125778664 0.971510694453405 -130.169125778664 0.0408281226635526 126.190572822903 
! Gamma         !               0.71941290431366 78.6273678864049 0.72166434163593 78.7395204264708 
! Port Impedance51.0921128969998 0.463135859057761 51.3810192872664 0.465792555745386 

2.052            0.0441041216501089 164.606781020174 0.971499443767731 -130.232820780983 0.971499443767731 -130.232820780983 0.0408421551965523 126.117238105123 
! Gamma         !               0.719774823623696 78.6661754894703 0.722027522508115 78.7783877151547 
! Port Impedance51.0919391189293 0.463148686769637 51.3808435150095 0.465805560790825 

2.053            0.0441190274452594 164.553219622977 0.971488197498139 -130.296516358499 0.971488197498139 -130.296516358499 0.0408561644190435 126.043879280269 
! Gamma         !               0.720136787242313 78.7049836592883 0.722390747884861 78.8172555757002 
! Port Impedance51.0917654882101 0.463161435426562 51.3806678928613 0.465818485142535 

2.054            0.0441339033872859 164.499637369266 0.971476955646977 -130.360212511792 0.971476955646977 -130.360212511792 0.0408701502875196 125.970496378406 
! Gamma         !               0.7204987950863  78.7437923958684 0.722754017682685 78.856124008117  
! Port Impedance51.0915920048034 0.463174105243199 51.380492420777  0.465831329024665 

2.055            0.0441487494214571 164.446034313227 0.971465718216576 -130.423909241443 0.971465718216576 -130.423909241443 0.0408841127585179 125.897089429639 
! Gamma         !               0.720860847072561 78.7826016992204 0.723117331818219 78.8949930124143 
! Port Impedance51.0914186686702 0.463186696433904 51.3803170987117 0.465844092661022 

2.056            0.0441635654931408 164.392410509105 0.971454485209252 -130.487606548033 0.971454485209252 -130.487606548033 0.0408980517886201 125.82365846411  
! Gamma         !               0.721222943118116 78.8214115693534 0.723480690208212 78.9338625886011 
! Port Impedance51.0912454797712 0.46319920921273 51.3801419266202 0.465856776275076 

2.057            0.0441783515478048 164.33876601121  0.971443256627302 -130.551304432143 0.971443256627302 -130.551304432143 0.0409119673344528 125.750203511995 
! Gamma         !               0.721585083140101 78.8602220062769 0.723844092769529 78.9727327366864 
! Port Impedance51.0910724380669 0.463211643793422 51.3799669044572 0.465869380089956 

2.058            0.0441931075310174 164.285100873911 0.971432032473009 -130.615002894352 0.971432032473009 -130.615002894352 0.0409258593526875 125.676724603509 
! Gamma         !               0.721947267055766 78.8990330099999 0.724207539419151 79.011603456679  
! Port Impedance51.0908995435173 0.463224000389423 51.3797920321768 0.465881904328453 

2.059            0.0442078333884478 164.231415151642 0.971420812748638 -130.678701935241 0.971420812748638 -130.678701935241 0.0409397278000414 125.603221768904 
! Gamma         !               0.722309494782477 78.9378445805313 0.724571030074174 79.0504747485874 
! Port Impedance51.0907267960826 0.46323627921387 51.3796173097333 0.465894349213017 

2.06             0.044222529065867 164.177708898896 0.97140959745644 -130.742401555388 0.97140959745644 -130.742401555388 0.0409535726332776 125.529695038467 
! Gamma         !               0.722671766237717 78.97665671788   0.724934564651811 79.0893466124203 
! Port Impedance51.0905541957225 0.463248480479592 51.3794427370802 0.46590671496576 

2.061            0.0442371945091481 164.123982170226 0.971398386598647 -130.806101755374 0.971398386598646 -130.806101755374 0.0409673938092054 125.456144442522 
! Gamma         !               0.723034081339083 79.0154694220545 0.72529814306939 79.1282190481858 
! Port Impedance51.0903817423965 0.463260604399116 51.3792683141713 0.465919001808455 

2.062            0.0442518296642669 164.070235020247 0.971387180177475 -130.869802535776 0.971387180177475 -130.869802535776 0.0409811912846805 125.382570011429 
! Gamma         !               0.723396440004289 79.0542826930633 0.725661765244356 79.1670920558921 
! Port Impedance51.0902094360637 0.463272651184662 51.3790940409598 0.465931209962532 

2.063            0.0442664344773029 164.016467503635 0.971375978195126 -130.933503897174 0.971375978195125 -130.933503897174 0.040994965016606 125.308971775585 
! Gamma         !               0.723758842151163 79.0930965309147 0.726025431094268 79.2059656355471 
! Port Impedance51.0900372766833 0.463284621048145 51.3789199173987 0.465943339649086 

2.064            0.0442810088944393 163.962679675126 0.971364780653783 -130.997205840145 0.971364780653783 -130.997205840145 0.041008714961932 125.235349765421 
! Gamma         !               0.724121287697648 79.1319109356168 0.726389140536803 79.2448397871587 
! Port Impedance51.0898652642139 0.463296514201175 51.3787459434409 0.465955391088871 

2.065            0.0442955528619641 163.908871589514 0.971353587555614 -131.060908365268 0.971353587555614 -131.060908365268 0.0410224410776565 125.161704011407 
! Gamma         !               0.724483776561804 79.1707259071776 0.726752893489752 79.2837145107346 
! Port Impedance51.0896933986142 0.463308330855055 51.3785721190388 0.4659673645023  

2.066            0.0443100663262701 163.855043301655 0.97134239890277 -131.124611473121 0.97134239890277 -131.124611473121 0.0410361433208255 125.088034544046 
! Gamma         !               0.724846308661805 79.2095414456049 0.727116689871022 79.3225898062822 
! Port Impedance51.0895216798425 0.463320071220784 51.3783984441447 0.465979260109449 

2.067            0.0443245492338561 163.801194866463 0.971331214697387 -131.18831516428 0.971331214697387 -131.18831516428 0.0410498216485336 125.014341393879 
! Gamma         !               0.725208883915941 79.2483575509065 0.727480529598637 79.3614656738088 
! Port Impedance51.0893501078567 0.463331735509054 51.3782249187107 0.465991078130053 

2.068            0.0443390015313272 163.747326338912 0.971320034941583 -131.252019439324 0.971320034941583 -131.252019439324 0.041063476017924 124.940624591481 
! Gamma         !               0.725571502242619 79.2871742230898 0.727844412590735 79.4003421133217 
! Port Impedance51.0891786826147 0.463343323930252 51.3780515426887 0.466002818783508 

2.069            0.0443534231653953 163.693437774033 0.971308859637462 -131.315724298828 0.971308859637461 -131.315724298828 0.0410771063861892 124.866884167462 
! Gamma         !               0.725934163560357 79.3259914621623 0.72820833876557 79.4392191248279 
! Port Impedance51.0890074040742 0.463354836694459 51.37787831603   0.46601448228887 

2.07             0.0443678140828797 163.639529226918 0.971297688787107 -131.379429743369 0.971297688787107 -131.379429743369 0.0410907127105714 124.793120152469 
! Gamma         !               0.726296867787793 79.3648092681309 0.728572308041514 79.4780967083341 
! Port Impedance51.0888362721925 0.463366274011451 51.377705238686  0.466026068864856 

2.071            0.0443821742307078 163.585600752716 0.971286522392591 -131.443135773523 0.971286522392591 -131.443135773523 0.0411042949483625 124.719332577184 
! Gamma         !               0.726659614843678 79.403627641003  0.728936320337051 79.5169748638472 
! Port Impedance51.0886652869267 0.463377636090697 51.3775323106078 0.466037578729845 

2.072            0.0443965035559157 163.531652406633 0.971275360455967 -131.506842389866 0.971275360455966 -131.506842389866 0.0411178530569049 124.645521472323 
! Gamma         !               0.727022404646877 79.4424465807853 0.729300375570784 79.5558535913736 
! Port Impedance51.0884944482337 0.46338892314136 51.3773595317463 0.466049012101875 

2.073            0.0444108020056487 163.477684243935 0.97126420297927 -131.570549592973 0.97126420297927 -131.570549592973 0.0411313869935914 124.571686868638 
! Gamma         !               0.727385237116373 79.4812660874845 0.729664473661428 79.5947328909198 
! Port Impedance51.0883237560702 0.4634001353723  51.3771869020519 0.466060369198644 

2.074            0.0444250695271616 163.423696319944 0.971253049964524 -131.63425738342 0.971253049964524 -131.63425738342 0.0411448967158663 124.497828796916 
! Gamma         !               0.727748112171262 79.5200861611073 0.730028614527818 79.633612762492  
! Port Impedance51.0881532103927 0.463411272992067 51.377014421475  0.466071650237512 

2.075            0.0444393060678199 163.369688690038 0.971241901413732 -131.697965761782 0.971241901413731 -131.697965761782 0.0411583821812247 124.423947287976 
! Gamma         !               0.728111029730756 79.5589068016601 0.730392798088899 79.6724932060961 
! Port Impedance51.0879828111573 0.463422336208907 51.3768420899657 0.466082855435499 

2.076            0.0444535115750997 163.315661409655 0.971230757328882 -131.761674728632 0.971230757328882 -131.761674728632 0.0411718433472139 124.350042372677 
! Gamma         !               0.728473989714183 79.5977280091491 0.730757024263737 79.7113742217383 
! Port Impedance51.08781255832   0.463433325230761 51.3766699074738 0.466093985009287 

2.077            0.0444676859965889 163.261614534286 0.971219617711948 -131.825384284546 0.971219617711948 -131.825384284546 0.0411852801714333 124.276114081907 
! Gamma         !               0.728836992040985 79.6365497835805 0.73112129297151 79.7502558094241 
! Port Impedance51.0876424518366 0.463444240265262 51.376497873949  0.466105039175217 

2.078            0.0444818292799872 163.207548119481 0.971208482564885 -131.889094430097 0.971208482564885 -131.889094430097 0.0411986926115346 124.202162446591 
! Gamma         !               0.729200036630718 79.6753721249601 0.731485604131512 79.7891379691592 
! Port Impedance51.0874724916625 0.463455081519739 51.3763259893407 0.466116018149291 

2.079            0.0444959413731069 163.153462220846 0.971197351889633 -131.952805165858 0.971197351889633 -131.952805165858 0.0412120806252225 124.128187497689 
! Gamma         !               0.729563123403057 79.7141950332939 0.731849957663154 79.828020700949  
! Port Impedance51.0873026777533 0.463465849201214 51.3761542535979 0.466126922147173 

2.08             0.0445100222238738 163.099356894039 0.971186225688115 -132.016516492404 0.971186225688115 -132.016516492404 0.041225444170255 124.054189266193 
! Gamma         !               0.729926252277787 79.7530185085875 0.732214353485961 79.8669040047988 
! Port Impedance51.0871330100637 0.463476543516401 51.3759826666696 0.466137751384186 

2.081            0.0445240717803271 163.045232194779 0.971175103962239 -132.080228410307 0.971175103962239 -132.080228410307 0.0412387832044435 123.980167783132 
! Gamma         !               0.730289423174811 79.7918425508463 0.732578791519574 79.9057878807137 
! Port Impedance51.0869634885489 0.463487164671712 51.3758112285045 0.466148506075316 

2.082            0.0445380899906206 162.991088178836 0.971163986713895 -132.143940920139 0.971163986713895 -132.143940920139 0.0412520976856537 123.906123079564 
! Gamma         !               0.730652636014147 79.8306671600756 0.732943271683748 79.9446723286987 
! Port Impedance51.0867941131633 0.463497712873249 51.3756399390509 0.466159186435208 
